Executable      : siesta
Version         : 5.4.2
Architecture    : x86_64
Compiler version: GNU-14.3.0
Compiler flags  : -march=nocona -mtune=haswell -ftree-vectorize -fPIC -fstack-protector-strong -fno-plt -O2 -ffunction-sections -pipe -isystem <prefix>/include -I<prefix>/_build_env/include -fdebug-prefix-map=<prefix>/work=/usr/local/src/conda/siesta-5.4.2 -fdebug-prefix-map=<prefix>=/usr/local/src/conda-prefix -I<prefix>/lib -fallow-argument-mismatch -O3
Parallelisations: none
NetCDF support
NetCDF-4 support
Lua support
DFT-D3 support

Runtime information:
* Directory : /home/UAB/1671530/documents/xoc de molecules/intents meus/xoc inpuits modificats
* Running in serial mode.
>> Start of run:  15-APR-2026  17:27:40

                           *********************** 
                           *  WELCOME TO SIESTA  * 
                           *********************** 

 NOTE: Siesta V5 introduces some new defaults for basis-set generation
 NOTE: which might lead to slightly different numerical results.
 NOTE: Please see the manual for full details and compatibility measures.


reinit: Reading from standard input
reinit: Dumping input in INPUT_TMP.60027
************************** Dump of input data file ****************************
#Molecular Dynamics simulation
SystemLabel xoc
#input structure
%include structure.fdf
#General aspects DFT Calculation (Basis Set and functional)
PAO.BasisSize SZP    #we use SZP instead of DZP to sped up calculation
BasisPressure 0.02 GPa  #needed for small molecules in siesta
PAO.EnergyShift 10 meV
XC.functional     GGA
XC.authors        PBE
# SCF options
#SCFMustConvergence     true
#MaxSCFIterations       250          # Maximum number of SCF iter
SCF.Mixer.Weight       0.02          # New DM amount for next SCF cycle
DM.Tolerance          1.d-3         # Tolerance in SCF iterations d-4 by default
# General Output
SaveHS true   #Save the Hamiltonian
# -----------------------------
#  MD options
#  options for a basic MD run
# -----------------------------
# Options to Integrate Equations of motion
MD.TypeOfRun         verlet         # Standard Verlet algrithm
                                    # for Molecular Dynamics
MD.LengthTimeStep         1.0 fs    # time step integration
                                    # Newton eqs of motion
MD.Initial.Time.Step     1          #initial time step of MD
MD.FinalTimeStep         240        #Final time step of MD
# Initial Atomic coordinates and Velocity for MD run
#MD.InitialTemperature   700   K    #Assign initial random velocity from
                                    # a Maxwell-Boltzmann distribution
                                    # for a given temperature
MD.UseSaveData      true
MD.UseSaveXV 		true            # use atomic Positions
                                    # and Velocities from
                                    # a previously saved XV file
# MD Output
WriteCoorXmol          true         #Save the final coordinates in .xyz format
WriteMDXmol            true         #Writes the coordinates
                                    #of all atoms at all steps
                                    #in a .ANI file
                                    #in xyz format
WriteMDhistory         true         #writes .MDE and .MD files
                                    # with output data from MD simulation
                                    # MDE contains: Temp, energy, volume, pressure
                                    # (human readable)
                                    # MD contains coords vel lattice vectors
                                    # (unformatted; post-process with iomd.f)
************************** End of input data file *****************************

reinit: -----------------------------------------------------------------------
reinit: System Name: 
reinit: -----------------------------------------------------------------------
reinit: System Label: xoc
reinit: -----------------------------------------------------------------------

initatom: Reading input for the pseudopotentials and atomic orbitals ----------
Species number:   1 Atomic number:    8 Label: O
Species number:   2 Atomic number:    1 Label: H

Ground state valence configuration (from tables):   2s02  2p04  3d00  4f00
Ground state valence configuration (from tables):   1s01  2p00  3d00  4f00

---- Processing specs for species: O
Reading pseudopotential information in PSML from:
  O.psml
PSML file version: 1.1
Using libxc ids:  101 130
GGA--PBE XC_GGA_X_PBE--XC_GGA_C_PBE pb
PSML uuid: 3cff85a0-be41-11e7-6c5c-1b1fe64d18ef

---- Processing specs for species: H
Reading pseudopotential information in PSML from:
  H.psml
PSML file version: 1.1
Using libxc ids:  101 130
GGA--PBE XC_GGA_X_PBE--XC_GGA_C_PBE pb
PSML uuid: f95fa9b0-be40-11e7-634a-9594ffff953f

---- Pseudopotential check for O 

Pseudized shells:
2s( 2.00) rc: 1.36
2p( 4.00) rc: 1.46
3d( 0.00) rc: 1.26
Valence configuration for ps generation: 2s:2p: Total charge:   6.000000

---- Pseudopotential check for H 

Pseudized shells:
1s( 1.00) rc: 1.01
2p( 0.00) rc: 0.71
Valence configuration for ps generation: 1s: Total charge:   1.000000
For O, standard SIESTA heuristics set lmxkb to 3
 (one more than the basis l, including polarization orbitals).
Use PS.lmax or PS.KBprojectors blocks to override.
For H, standard SIESTA heuristics set lmxkb to 2
 (one more than the basis l, including polarization orbitals).
Use PS.lmax or PS.KBprojectors blocks to override.
O pseudopotential only contains V_ls up to l=2 -- lmxkb reset.
H pseudopotential only contains V_ls up to l=1 -- lmxkb reset.

<basis_specs>
===============================================================================
O                    Z=   8    Mass=  15.999        Charge= 0.17977+309
Lmxo=2 Lmxkb= 2    BasisType=split      Semic=F
L=0  Nsemic=0  Cnfigmx=2
          i=1  nzeta=1  polorb=0  (2s)
            splnorm:   0.15000    
               vcte:    40.000    
               rinn:  -0.90000    
               qcoe:    0.0000    
               qyuk:    0.0000    
               qwid:   0.10000E-01
                rcs:    0.0000    
            lambdas:    1.0000    
L=1  Nsemic=0  Cnfigmx=2
          i=1  nzeta=1  polorb=1  (2p)  (to be polarized perturbatively)
            splnorm:   0.15000    
               vcte:    40.000    
               rinn:  -0.90000    
               qcoe:    0.0000    
               qyuk:    0.0000    
               qwid:   0.10000E-01
                rcs:    0.0000    
            lambdas:    1.0000    
L=2  Nsemic=0  Cnfigmx=3
          i=1  nzeta=0  polorb=0  (3d)  (perturbative polarization orbital) (from 2p)
-------------------------------------------------------------------------------
L=0  Nkbl=1  erefs: 0.17977+309
L=1  Nkbl=1  erefs: 0.17977+309
L=2  Nkbl=1  erefs: 0.17977+309
===============================================================================
</basis_specs>

Using PAO.SplitTailNorm
atom: Called for O                     (Z =   8)
Maximum radius (at nrval) set to   50.00000 8518

read_vps: Pseudopotential generation method:
read_vps: ONCVPSP-3.Hamann's oncvpsp                        
Valence charge in pseudo generation:    6.00000

read_vps: Pseudopotential includes a core correction:
read_vps: Pseudo-core for xc-correction

xc_check: Exchange-correlation functional:
xc_check: GGA Perdew, Burke & Ernzerhof 1996
Got Vlocal (oncv-fit) from psml data
Choosing vlocal chloc cutoff:  6.020499
qtot up to nchloc:    6.00001015
atom: Maximum radius for chlocal:    6.02050
atom: Maximum radius for r*vlocal+2*Zval:    6.02050
Reading KB projs from O psml data
Using scalar-relativistic projectors in PSML file

PSML: Kleinman-Bylander projectors: 
   l= 0   rc=  1.372412   Ekb= 12.113471
   l= 0   rc=  1.372412   Ekb=  1.648048
   l= 1   rc=  1.474132   Ekb= -9.434259
   l= 1   rc=  1.474132   Ekb= -2.298541
   l= 2   rc=  1.277664   Ekb= -2.663910

PSML: Total number of  Kleinman-Bylander projectors:  13
atom: -------------------------------------------------------------------------

atom: SANKEY-TYPE ORBITALS:

SPLIT: Orbitals with angular momentum L= 0

SPLIT: Basis orbitals for state 2s

SPLIT: PAO cut-off radius determined from an
SPLIT: energy shift=  0.000735 Ry
Split based on tail norm

   izeta = 1
                 lambda =    1.000000
                     rc =    4.566021
                 energy =   -1.760280
                kinetic =    1.535743
    potential(screened) =   -3.296022
       potential(ionic) =  -11.142033

SPLIT: Orbitals with angular momentum L= 1

SPLIT: Basis orbitals for state 2p

SPLIT: PAO cut-off radius determined from an
SPLIT: energy shift=  0.000735 Ry
Split based on tail norm

   izeta = 1
                 lambda =    1.000000
                     rc =    5.912921
                 energy =   -0.662875
                kinetic =    4.463269
    potential(screened) =   -5.126144
       potential(ionic) =  -12.659411

POLgen: Perturbative polarization orbital with L=  2

POLgen: Polarization orbital for state 2p
Split based on tail norm

   izeta = 1
                     rc =    5.912921
                 energy =    1.865729
                kinetic =    3.536681
    potential(screened) =   -1.670952
       potential(ionic) =   -7.378590
atom: Total number of Sankey-type orbitals:  9

atm_pop: Valence configuration (for local Pseudopot. screening):
 2s( 2.00)                                                            
 2p( 4.00)                                                            
 3d( 0.00)                                                            
Vna: chval, zval:    6.00000   6.00000

Vna:  Cut-off radius for the neutral-atom potential:   5.912921
comcore: Pseudo-core radius Rcore=  1.354557

atom: _________________________________________________________________________

<basis_specs>
===============================================================================
H                    Z=   1    Mass=  1.0080        Charge= 0.17977+309
Lmxo=1 Lmxkb= 1    BasisType=split      Semic=F
L=0  Nsemic=0  Cnfigmx=1
          i=1  nzeta=1  polorb=1  (1s)  (to be polarized perturbatively)
            splnorm:   0.15000    
               vcte:    40.000    
               rinn:  -0.90000    
               qcoe:    0.0000    
               qyuk:    0.0000    
               qwid:   0.10000E-01
                rcs:    0.0000    
            lambdas:    1.0000    
L=1  Nsemic=0  Cnfigmx=2
          i=1  nzeta=0  polorb=0  (2p)  (perturbative polarization orbital) (from 1s)
-------------------------------------------------------------------------------
L=0  Nkbl=1  erefs: 0.17977+309
L=1  Nkbl=1  erefs: 0.17977+309
===============================================================================
</basis_specs>

Using PAO.SplitTailNorm
atom: Called for H                     (Z =   1)
Maximum radius (at nrval) set to   50.00000 8518

read_vps: Pseudopotential generation method:
read_vps: ONCVPSP-3.Hamann's oncvpsp                        
Valence charge in pseudo generation:    1.00000

xc_check: Exchange-correlation functional:
xc_check: GGA Perdew, Burke & Ernzerhof 1996
Got Vlocal (oncv-fit) from psml data
Choosing vlocal chloc cutoff:  1.926399
qtot up to nchloc:    0.99999831
atom: Maximum radius for chlocal:    1.92640
atom: Maximum radius for r*vlocal+2*Zval:    1.92640
Reading KB projs from H psml data
Using scalar-relativistic projectors in PSML file

PSML: Kleinman-Bylander projectors: 
   l= 0   rc=  1.022342   Ekb= -3.402247
   l= 0   rc=  1.022342   Ekb= -1.068968
   l= 1   rc=  0.714575   Ekb= -1.006642

PSML: Total number of  Kleinman-Bylander projectors:   5
atom: -------------------------------------------------------------------------

atom: SANKEY-TYPE ORBITALS:

SPLIT: Orbitals with angular momentum L= 0

SPLIT: Basis orbitals for state 1s

SPLIT: PAO cut-off radius determined from an
SPLIT: energy shift=  0.000735 Ry
Split based on tail norm

   izeta = 1
                 lambda =    1.000000
                     rc =    7.238756
                 energy =   -0.476315
                kinetic =    0.887622
    potential(screened) =   -1.363936
       potential(ionic) =   -1.882865

POLgen: Perturbative polarization orbital with L=  1

POLgen: Polarization orbital for state 1s
Split based on tail norm

   izeta = 1
                     rc =    7.238756
                 energy =    0.508786
                kinetic =    1.081322
    potential(screened) =   -0.572537
       potential(ionic) =   -1.035092
atom: Total number of Sankey-type orbitals:  4

atm_pop: Valence configuration (for local Pseudopot. screening):
 1s( 1.00)                                                            
 2p( 0.00)                                                            
Vna: chval, zval:    1.00000   1.00000

Vna:  Cut-off radius for the neutral-atom potential:   7.238756

atom: _________________________________________________________________________

prinput: Basis input 

PAO.BasisType split     

%block ChemicalSpeciesLabel
    1    8 O                       # Species index, atomic number, species label
    2    1 H                       # Species index, atomic number, species label
%endblock ChemicalSpeciesLabel

%block PAO.Basis                 # Define Basis set
# WARNING: This information might be incomplete!
O                     2                    # Species label, number of l-shells
 n=2   0   1                         # n, l, Nzeta 
   4.566   
   1.000   
 n=2   1   1 P   1                   # n, l, Nzeta, Polarization, NzetaPol
   5.913   
   1.000   
H                     1                    # Species label, number of l-shells
 n=1   0   1 P   1                   # n, l, Nzeta, Polarization, NzetaPol
   7.239   
   1.000   
%endblock PAO.Basis

prinput: ----------------------------------------------------------------------

Dumping basis to NetCDF file O.ion.nc
Dumping basis to NetCDF file H.ion.nc
coor:   Atomic-coordinates input format  =     Cartesian coordinates
coor:                                          (in Angstroms)

ioxv: Reading coordinates and velocities from file
! Info in XV file prevails over previous structure input
WARNING: xoc.VERLET_RESTART not found--reading only XV file and moving back 1 time step using Euler

siesta: Atomic coordinates (Bohr) and species
siesta:     -5.90716   0.01470  -0.00291  1        1
siesta:     -3.54056  -0.01463   0.00294  1        2
siesta:      4.77451   0.03301   0.05093  2        3
siesta:      6.30366  -0.03382  -0.05094  2        4

siesta: System type = molecule  

initatomlists: Number of atoms, orbitals, and projectors:      4    26    36

coxmol: Writing XMOL coordinates into file xoc.xyz                                                                                                                                                                                                                             

siesta: ******************** Simulation parameters ****************************
siesta:
siesta: The following are some of the parameters of the simulation.
siesta: A complete list of the parameters used, including default values,
siesta: can be found in file out.fdf
siesta:
redata: Spin configuration                          = none
redata: Number of spin components                   = 1
redata: Time-Reversal Symmetry                      = T
redata: Spin spiral                                 = F
redata: Long output                                 =   F
redata: Number of Atomic Species                    =        2
redata: Charge density info will appear in .RHO file
redata: Write Mulliken charges (when)               = none
redata: Write Mulliken Pop.                         = NO
redata: Write Hirshfeld charges (when)              = none
redata: Write Voronoi charges (when)                = none
redata: Write spin charge (when)                    = none
redata: Matel table size (NRTAB)                    =     1024
redata: Mesh Cutoff                                 =   300.0000 Ry
redata: Net charge of the system                    =     0.0000 |e|
redata: Min. number of SCF Iter                     =        0
redata: Max. number of SCF Iter                     =     1000
redata: SCF convergence failure will abort job
redata: SCF mix quantity                            = Hamiltonian
redata: Mix DM or H after convergence               =   F
redata: Recompute H after scf cycle                 =   F
redata: Mix DM in first SCF step                    =   T
redata: Write Pulay info on disk                    =   F
redata: New DM Occupancy tolerance                  = 0.000000000001
redata: No kicks to SCF
redata: DM Mixing Weight for Kicks                  =     0.5000
redata: Require Harris convergence for SCF          =   F
redata: Harris energy tolerance for SCF             =     0.000100 eV
redata: Require DM convergence for SCF              =   T
redata: DM tolerance for SCF                        =     0.001000
redata: Require EDM convergence for SCF             =   F
redata: EDM tolerance for SCF                       =     0.001000 eV
redata: Require H convergence for SCF               =   T
redata: Hamiltonian tolerance for SCF               =     0.001000 eV
redata: Require (free) Energy convergence for SCF   =   F
redata: (free) Energy tolerance for SCF             =     0.000100 eV
redata: Using DFT-D3 dispersion                     =   F
redata: Using Saved Data (generic)                  =   F
redata: Use continuation files for DM               =   T
redata: Neglect nonoverlap interactions             =   F
redata: Method of Calculation                       = Diagonalization
redata: Electronic Temperature                      =   300.0000 K
redata: Fix the spin of the system                  =   F
redata: Max. number of TDED Iter                    =        1
redata: Number of TDED substeps                     =        3
redata: Dynamics option                             = Verlet MD run
redata: Initial MD time step                        =        1
redata:   Final MD time step                        =      240
redata: Length of MD time step                      =     1.0000 fs
redata: Initial Temperature of MD run               =     0.0000 K
redata: Perform a MD quench                         =   F
mix.SCF: Pulay mixing                            = Pulay
mix.SCF:    Variant                              = stable
mix.SCF:    History steps                        = 2
mix.SCF:    Linear mixing weight                 =     0.020000
mix.SCF:    Mixing weight                        =     0.020000
mix.SCF:    SVD condition                        = 0.1000E-07
redata: Save all siesta data in one NC              =   F
redata: ***********************************************************************

%block SCF.Mixers
  Pulay
%endblock SCF.Mixers

%block SCF.Mixer.Pulay
  # Mixing method
  method pulay
  variant stable

  # Mixing options
  weight 0.0200
  weight.linear 0.0200
  history 2
%endblock SCF.Mixer.Pulay

Size of DM history Fstack: 1
Total number of electrons:    14.000000
Total ionic charge:    14.000000

siesta: k-grid: Number of k-points = 1
siesta: k-point is Gamma-only

diag: Algorithm                                     = D&C
diag: Used triangular part                          = Lower
diag: Absolute tolerance                            =  0.100E-15
diag: Orthogonalization factor                      =  0.100E-05
diag: Memory factor                                 =  1.0000


ts: **************************************************************
ts: Save H and S matrices                           =    F
ts: Save TSHS files in MD/FC simulation             =    F
ts: Save DM and EDM matrices                        =    F
ts: Only save the overlap matrix S                  =    F
ts: **************************************************************

************************ Begin: TS CHECKS AND WARNINGS ************************
************************ End: TS CHECKS AND WARNINGS **************************


                     ====================================
                        Begin MD step =      1
                     ====================================

outcell: Unit cell vectors (Ang):
       20.000000    0.000000    0.000000
        0.000000   20.000000    0.000000
        0.000000    0.000000   20.000000

outcell: Cell vector modules (Ang)   :   20.000000   20.000000   20.000000
outcell: Cell angles (23,13,12) (deg):     90.0000     90.0000     90.0000
outcell: Cell volume (Ang**3)        :   8000.0000
<dSpData1D:S at geom step 1
  <sparsity:sparsity for geom step 1
    nrows_g=26 nrows=26 sparsity=.9882 nnzs=668, refcount: 7>
  <dData1D:(new from dSpData1D) n=668, refcount: 1>
refcount: 1>
new_DM -- step:     1
Initializing Density Matrix...

Attempting to read DM from file... Failed...
DM filled with atomic data:
<dSpData2D:DM initialized from atoms
  <sparsity:sparsity for geom step 1
    nrows_g=26 nrows=26 sparsity=.9882 nnzs=668, refcount: 8>
  <dData2D:DM n=668 m=1, refcount: 1>
refcount: 1>
No. of atoms with KB's overlaping orbs in proc 0. Max # of overlaps:       4      22

InitMesh: MESH = 216 x 216 x 216 = 10077696
InitMesh: Mesh cutoff (required, used) =   300.000   322.366 Ry
New grid distribution [1]: sub = 2

stepf: Fermi-Dirac step function

siesta: Program's energy decomposition (eV):
siesta: Ebs     =      -232.456035
siesta: Eions   =      1373.261630
siesta: Ena     =       215.891483
siesta: Ekin    =       579.437211
siesta: Enl     =      -124.154981
siesta: Eso     =         0.000000
siesta: Edftu   =         0.000000
siesta: DEna    =         9.699744
siesta: DUscf   =         1.300440
siesta: DUext   =         0.000000
siesta: Ex      =      -217.133933
siesta: Ec      =       -14.503040
siesta: Exc     =      -231.636972
siesta: EbV     =         0.000000
siesta: eta*DQ  =         0.000000
siesta: Emadel  =         0.000000
siesta: Emeta   =         0.000000
siesta: Emolmec =         0.000000
siesta: Ekinion =         0.000000
siesta: Eharris =      -922.248090
siesta: Etot    =      -922.724705
siesta: FreeEng =      -922.796382

        iscf     Eharris(eV)        E_KS(eV)     FreeEng(eV)     dDmax    Ef(eV) dHmax(eV)
   scf:    1     -922.248090     -922.724705     -922.796382  0.822162 -6.412750  1.939818
timer: Routine,Calls,Time,% = IterSCF        1       1.293  33.69
   scf:    2     -922.756253     -922.740526     -922.812203  0.002006 -6.438427  1.881572
   scf:    3     -923.124842     -922.979641     -923.051317  0.066371 -7.244882  0.154109
   scf:    4     -922.979829     -922.979737     -923.051414  0.000603 -7.240161  0.152574
   scf:    5     -922.980082     -922.979922     -923.051599  0.001524 -7.228744  0.145687
   scf:    6     -922.980051     -922.979988     -923.051665  0.000484 -7.224807  0.140196
   scf:    7     -922.980194     -922.980102     -923.051779  0.000958 -7.215149  0.123487
   scf:    8     -922.980175     -922.980139     -923.051816  0.000229 -7.211900  0.119826
   scf:    9     -922.980218     -922.980186     -923.051863  0.000578 -7.204366  0.118200
   scf:   10     -922.980215     -922.980201     -923.051878  0.000307 -7.201957  0.113679
   scf:   11     -922.980197     -922.980202     -923.051879  0.000654 -7.197222  0.099347
   scf:   12     -922.980211     -922.980207     -923.051884  0.000276 -7.196085  0.089586
   scf:   13     -922.980195     -922.980202     -923.051879  0.000657 -7.194623  0.073187
   scf:   14     -922.980223     -922.980213     -923.051890  0.000352 -7.194919  0.070033
   scf:   15     -922.980246     -922.980230     -923.051907  0.000756 -7.196333  0.061575
   scf:   16     -922.980272     -922.980252     -923.051929  0.000346 -7.197656  0.056242
   scf:   17     -922.980332     -922.980294     -923.051971  0.000718 -7.200910  0.052823
   scf:   18     -922.980347     -922.980321     -923.051998  0.000284 -7.202658  0.057208
   scf:   19     -922.980423     -922.980374     -923.052051  0.000600 -7.206714  0.065008
   scf:   20     -922.980424     -922.980400     -923.052077  0.000215 -7.208450  0.066303
   scf:   21     -922.980496     -922.980450     -923.052127  0.000496 -7.212577  0.067812
   scf:   22     -922.980489     -922.980470     -923.052147  0.000172 -7.214115  0.066909
   scf:   23     -922.980540     -922.980508     -923.052184  0.000413 -7.217900  0.063324
   scf:   24     -922.980533     -922.980520     -923.052197  0.000132 -7.219211  0.060722
   scf:   25     -922.980558     -922.980541     -923.052218  0.000314 -7.222402  0.052895
   scf:   26     -922.980553     -922.980547     -923.052224  0.000106 -7.223463  0.050919
   scf:   27     -922.980553     -922.980551     -923.052228  0.000273 -7.225804  0.047720
   scf:   28     -922.980553     -922.980552     -923.052229  0.000125 -7.226499  0.044891
   scf:   29     -922.980541     -922.980547     -923.052224  0.000284 -7.227728  0.037123
   scf:   30     -922.980545     -922.980546     -923.052223  0.000124 -7.227917  0.035656
   scf:   31     -922.980538     -922.980542     -923.052219  0.000295 -7.227964  0.034917
   scf:   32     -922.980546     -922.980544     -923.052221  0.000161 -7.227658  0.033446
   scf:   33     -922.980553     -922.980549     -923.052226  0.000339 -7.226782  0.029561
   scf:   34     -922.980560     -922.980555     -923.052232  0.000157 -7.226182  0.027074
   scf:   35     -922.980577     -922.980566     -923.052243  0.000319 -7.224827  0.024205
   scf:   36     -922.980580     -922.980573     -923.052250  0.000127 -7.224170  0.025925
   scf:   37     -922.980600     -922.980587     -923.052264  0.000263 -7.222721  0.028837
   scf:   38     -922.980600     -922.980594     -923.052271  0.000099 -7.222148  0.029213
   scf:   39     -922.980617     -922.980606     -923.052283  0.000226 -7.220843  0.029427
   scf:   40     -922.980615     -922.980611     -923.052288  0.000078 -7.220399  0.028879
   scf:   41     -922.980627     -922.980619     -923.052296  0.000187 -7.219363  0.026949
   scf:   42     -922.980624     -922.980622     -923.052299  0.000061 -7.219054  0.025686
   scf:   43     -922.980629     -922.980626     -923.052303  0.000142 -7.218374  0.023521
   scf:   44     -922.980628     -922.980627     -923.052304  0.000050 -7.218216  0.022709
   scf:   45     -922.980626     -922.980627     -923.052304  0.000125 -7.217968  0.020125
   scf:   46     -922.980626     -922.980626     -923.052303  0.000057 -7.217999  0.018419
   scf:   47     -922.980622     -922.980624     -923.052301  0.000127 -7.218210  0.016190
   scf:   48     -922.980623     -922.980624     -923.052301  0.000055 -7.218437  0.016342
   scf:   49     -922.980621     -922.980622     -923.052299  0.000125 -7.219017  0.016126
   scf:   50     -922.980623     -922.980623     -923.052299  0.000069 -7.219368  0.015532
   scf:   51     -922.980624     -922.980623     -923.052300  0.000145 -7.220117  0.013925
   scf:   52     -922.980626     -922.980625     -923.052302  0.000067 -7.220474  0.012852
   scf:   53     -922.980630     -922.980628     -923.052305  0.000136 -7.221192  0.010763
   scf:   54     -922.980631     -922.980629     -923.052306  0.000054 -7.221470  0.011377
   scf:   55     -922.980636     -922.980633     -923.052310  0.000113 -7.222033  0.012368
   scf:   56     -922.980636     -922.980634     -923.052311  0.000044 -7.222208  0.012437
   scf:   57     -922.980640     -922.980637     -923.052314  0.000102 -7.222567  0.012330
   scf:   58     -922.980639     -922.980638     -923.052315  0.000036 -7.222646  0.012041
   scf:   59     -922.980642     -922.980640     -923.052317  0.000087 -7.222780  0.012156
   scf:   60     -922.980641     -922.980641     -923.052318  0.000029 -7.222766  0.011921
   scf:   61     -922.980642     -922.980642     -923.052319  0.000067 -7.222659  0.011061
   scf:   62     -922.980642     -922.980642     -923.052319  0.000023 -7.222543  0.010480
   scf:   63     -922.980641     -922.980642     -923.052319  0.000057 -7.222192  0.008816
   scf:   64     -922.980641     -922.980642     -923.052319  0.000026 -7.221969  0.007846
   scf:   65     -922.980640     -922.980641     -923.052318  0.000056 -7.221422  0.007368
   scf:   66     -922.980640     -922.980641     -923.052318  0.000024 -7.221127  0.007483
   scf:   67     -922.980640     -922.980640     -923.052317  0.000050 -7.220502  0.007463
   scf:   68     -922.980640     -922.980640     -923.052317  0.000028 -7.220210  0.007211
   scf:   69     -922.980641     -922.980640     -923.052317  0.000059 -7.219648  0.006514
   scf:   70     -922.980641     -922.980641     -923.052318  0.000028 -7.219426  0.006039
   scf:   71     -922.980642     -922.980641     -923.052318  0.000056 -7.219014  0.004962
   scf:   72     -922.980642     -922.980642     -923.052319  0.000022 -7.218884  0.004747
   scf:   73     -922.980643     -922.980643     -923.052320  0.000049 -7.218646  0.005426
   scf:   74     -922.980643     -922.980643     -923.052320  0.000019 -7.218597  0.005640
   scf:   75     -922.980644     -922.980644     -923.052321  0.000045 -7.218524  0.006018
   scf:   76     -922.980644     -922.980644     -923.052321  0.000016 -7.218540  0.006027
   scf:   77     -922.980645     -922.980644     -923.052321  0.000039 -7.218624  0.005920
   scf:   78     -922.980645     -922.980644     -923.052321  0.000013 -7.218699  0.005752
   scf:   79     -922.980645     -922.980645     -923.052322  0.000031 -7.218936  0.005198
   scf:   80     -922.980645     -922.980645     -923.052322  0.000011 -7.219076  0.004847
   scf:   81     -922.980644     -922.980645     -923.052321  0.000025 -7.219448  0.003898
   scf:   82     -922.980644     -922.980644     -923.052321  0.000011 -7.219646  0.003379
   scf:   83     -922.980644     -922.980644     -923.052321  0.000024 -7.220100  0.003253
   scf:   84     -922.980644     -922.980644     -923.052321  0.000010 -7.220322  0.003326
   scf:   85     -922.980644     -922.980644     -923.052321  0.000019 -7.220767  0.003358
   scf:   86     -922.980644     -922.980644     -923.052321  0.000011 -7.220958  0.003262
   scf:   87     -922.980644     -922.980644     -923.052321  0.000023 -7.221312  0.002982
   scf:   88     -922.980644     -922.980644     -923.052321  0.000011 -7.221439  0.002783
   scf:   89     -922.980645     -922.980644     -923.052321  0.000022 -7.221667  0.002322
   scf:   90     -922.980645     -922.980644     -923.052321  0.000009 -7.221728  0.002383
   scf:   91     -922.980645     -922.980645     -923.052322  0.000021 -7.221835  0.002752
   scf:   92     -922.980645     -922.980645     -923.052322  0.000008 -7.221846  0.002824
   scf:   93     -922.980645     -922.980645     -923.052322  0.000020 -7.221848  0.002934
   scf:   94     -922.980645     -922.980645     -923.052322  0.000007 -7.221822  0.002914
   scf:   95     -922.980645     -922.980645     -923.052322  0.000018 -7.221731  0.002801
   scf:   96     -922.980645     -922.980645     -923.052322  0.000006 -7.221671  0.002700
   scf:   97     -922.980645     -922.980645     -923.052322  0.000015 -7.221493  0.002384
   scf:   98     -922.980645     -922.980645     -923.052322  0.000005 -7.221396  0.002202
   scf:   99     -922.980645     -922.980645     -923.052322  0.000011 -7.221148  0.001723
   scf:  100     -922.980645     -922.980645     -923.052322  0.000005 -7.221022  0.001470
   scf:  101     -922.980645     -922.980645     -923.052322  0.000010 -7.220740  0.001442
   scf:  102     -922.980645     -922.980645     -923.052322  0.000004 -7.220608  0.001483
   scf:  103     -922.980645     -922.980645     -923.052322  0.000007 -7.220349  0.001510
   scf:  104     -922.980645     -922.980645     -923.052322  0.000004 -7.220242  0.001472
   scf:  105     -922.980645     -922.980645     -923.052322  0.000009 -7.220048  0.001356
   scf:  106     -922.980645     -922.980645     -923.052322  0.000004 -7.219982  0.001270
   scf:  107     -922.980645     -922.980645     -923.052322  0.000009 -7.219866  0.001080
   scf:  108     -922.980645     -922.980645     -923.052322  0.000004 -7.219837  0.001160
   scf:  109     -922.980645     -922.980645     -923.052322  0.000009 -7.219789  0.001307
   scf:  110     -922.980645     -922.980645     -923.052322  0.000004 -7.219787  0.001332
   scf:  111     -922.980645     -922.980645     -923.052322  0.000009 -7.219797  0.001363
   scf:  112     -922.980645     -922.980645     -923.052322  0.000003 -7.219814  0.001348
   scf:  113     -922.980645     -922.980645     -923.052322  0.000008 -7.219873  0.001280
   scf:  114     -922.980645     -922.980645     -923.052322  0.000003 -7.219909  0.001228
   scf:  115     -922.980645     -922.980645     -923.052322  0.000007 -7.220012  0.001070
   scf:  116     -922.980645     -922.980645     -923.052322  0.000002 -7.220067  0.000981

SCF Convergence by DM+H criterion
max |DM_out - DM_in|         :     0.0000024189
max |H_out - H_in|      (eV) :     0.0009806877
SCF cycle converged after 116 iterations

Using DM_out to compute the final energy and forces
No. of atoms with KB's overlaping orbs in proc 0. Max # of overlaps:       4      22

siesta: E_KS(eV) =             -922.9806

siesta: E_KS - E_eggbox =      -922.9806

siesta: Atomic forces (eV/Ang):
----------------------------------------
   Tot    0.002152    0.000523    0.000771
----------------------------------------
   Max    4.245411
   Res    1.919448    sqrt( Sum f_i^2 / 3N )
----------------------------------------
   Max    4.245411    constrained

Stress tensor Voigt[x,y,z,yz,xz,xy] (kbar):       -1.90       -0.01       -0.01       -0.00        0.02        0.04
(Free)E + p*V (eV/cell)     -919.8605
Target enthalpy (eV/cell)     -923.0523

siesta: Stress tensor (static) (eV/Ang**3):
        -0.000866    0.000017    0.000012
         0.000017    0.000000   -0.000001
         0.000012   -0.000001   -0.000000

siesta: Pressure (static):          0.46227576  kBar

siesta: Stress tensor (total) (eV/Ang**3):
        -0.001184    0.000022    0.000013
         0.000022   -0.000008   -0.000002
         0.000013   -0.000002   -0.000005

siesta: Pressure (total):          0.63922950  kBar

siesta: Temp_ion =    3417.789 K

                     ====================================
                        Begin MD step =      2
                     ====================================

outcell: Unit cell vectors (Ang):
       20.000000    0.000000    0.000000
        0.000000   20.000000    0.000000
        0.000000    0.000000   20.000000

outcell: Cell vector modules (Ang)   :   20.000000   20.000000   20.000000
outcell: Cell angles (23,13,12) (deg):     90.0000     90.0000     90.0000
outcell: Cell volume (Ang**3)        :   8000.0000
<dSpData1D:S at geom step 2
  <sparsity:sparsity for geom step 2
    nrows_g=26 nrows=26 sparsity=.9882 nnzs=668, refcount: 7>
  <dData1D:(new from dSpData1D) n=668, refcount: 1>
refcount: 1>
new_DM -- step:     2
Re-using DM from previous geometries...
Number of DMs in history: 1
 DM extrapolation coefficients: 
1   1.00000
New DM after history re-use:
<dSpData2D:SpM extrapolated using coords
  <sparsity:sparsity for geom step 2
    nrows_g=26 nrows=26 sparsity=.9882 nnzs=668, refcount: 9>
  <dData2D:(temp array for extrapolation) n=668 m=1, refcount: 1>
refcount: 1>
No. of atoms with KB's overlaping orbs in proc 0. Max # of overlaps:       4      22

InitMesh: MESH = 216 x 216 x 216 = 10077696
InitMesh: Mesh cutoff (required, used) =   300.000   322.366 Ry
New grid distribution [1]: sub = 2

        iscf     Eharris(eV)        E_KS(eV)     FreeEng(eV)     dDmax    Ef(eV) dHmax(eV)
   scf:    1     -922.935376     -922.986682     -923.058359  0.006314 -7.175094  0.052607
   scf:    2     -922.986449     -922.986632     -923.058309  0.002534 -7.217376  0.041865
   scf:    3     -922.986755     -922.986703     -923.058380  0.001074 -7.203283  0.023370
   scf:    4     -922.986712     -922.986708     -923.058385  0.000184 -7.203294  0.021698
   scf:    5     -922.986726     -922.986724     -923.058401  0.001278 -7.203539  0.008695
   scf:    6     -922.986725     -922.986724     -923.058401  0.000115 -7.203699  0.008231
   scf:    7     -922.986703     -922.986719     -923.058395  0.001822 -7.206966  0.008844
   scf:    8     -922.986720     -922.986719     -923.058396  0.000117 -7.207627  0.008376
   scf:    9     -922.986724     -922.986722     -923.058399  0.000688 -7.210554  0.005632
   scf:   10     -922.986724     -922.986723     -923.058400  0.000229 -7.210999  0.004656
   scf:   11     -922.986724     -922.986724     -923.058401  0.000630 -7.212332  0.003760
   scf:   12     -922.986724     -922.986724     -923.058401  0.000019 -7.212465  0.003494
   scf:   13     -922.986725     -922.986725     -923.058402  0.000113 -7.212840  0.002505
   scf:   14     -922.986725     -922.986725     -923.058402  0.000046 -7.212824  0.002315
   scf:   15     -922.986725     -922.986725     -923.058402  0.000248 -7.212695  0.001518
   scf:   16     -922.986725     -922.986725     -923.058402  0.000008 -7.212650  0.001566
   scf:   17     -922.986725     -922.986725     -923.058402  0.000076 -7.212280  0.001831
   scf:   18     -922.986725     -922.986725     -923.058402  0.000025 -7.212161  0.001802
   scf:   19     -922.986725     -922.986725     -923.058402  0.000085 -7.211632  0.001554
   scf:   20     -922.986725     -922.986725     -923.058402  0.000007 -7.211460  0.001362
   scf:   21     -922.986725     -922.986725     -923.058402  0.000015 -7.211068  0.000859

SCF Convergence by DM+H criterion
max |DM_out - DM_in|         :     0.0000152255
max |H_out - H_in|      (eV) :     0.0008590808
SCF cycle converged after 21 iterations

Using DM_out to compute the final energy and forces
No. of atoms with KB's overlaping orbs in proc 0. Max # of overlaps:       4      22

siesta: E_KS(eV) =             -922.9867

siesta: Atomic forces (eV/Ang):
----------------------------------------
   Tot   -0.000965   -0.000379   -0.000576
----------------------------------------
   Max    4.407300
   Res    1.935340    sqrt( Sum f_i^2 / 3N )
----------------------------------------
   Max    4.407300    constrained

Stress tensor Voigt[x,y,z,yz,xz,xy] (kbar):       -1.89       -0.01       -0.01       -0.00        0.01        0.02
(Free)E + p*V (eV/cell)     -919.8730
Target enthalpy (eV/cell)     -923.0584

siesta: Stress tensor (static) (eV/Ang**3):
        -0.000865    0.000008    0.000005
         0.000008    0.000001   -0.000000
         0.000005   -0.000000    0.000001

siesta: Pressure (static):          0.46099764  kBar

siesta: Stress tensor (total) (eV/Ang**3):
        -0.001183    0.000013    0.000006
         0.000013   -0.000008   -0.000002
         0.000006   -0.000002   -0.000004

siesta: Pressure (total):          0.63795137  kBar

siesta: Temp_ion =    3427.345 K

                     ====================================
                        Begin MD step =      3
                     ====================================

outcell: Unit cell vectors (Ang):
       20.000000    0.000000    0.000000
        0.000000   20.000000    0.000000
        0.000000    0.000000   20.000000

outcell: Cell vector modules (Ang)   :   20.000000   20.000000   20.000000
outcell: Cell angles (23,13,12) (deg):     90.0000     90.0000     90.0000
outcell: Cell volume (Ang**3)        :   8000.0000
<dSpData1D:S at geom step 3
  <sparsity:sparsity for geom step 3
    nrows_g=26 nrows=26 sparsity=.9882 nnzs=668, refcount: 7>
  <dData1D:(new from dSpData1D) n=668, refcount: 1>
refcount: 1>
new_DM -- step:     3
Re-using DM from previous geometries...
Number of DMs in history: 1
 DM extrapolation coefficients: 
1   1.00000
New DM after history re-use:
<dSpData2D:SpM extrapolated using coords
  <sparsity:sparsity for geom step 3
    nrows_g=26 nrows=26 sparsity=.9882 nnzs=668, refcount: 9>
  <dData2D:(temp array for extrapolation) n=668 m=1, refcount: 1>
refcount: 1>
Note: For starting DM, Qtot, Tr[D*S] =         14.00000000         13.98302117
No. of atoms with KB's overlaping orbs in proc 0. Max # of overlaps:       4      22

InitMesh: MESH = 216 x 216 x 216 = 10077696
InitMesh: Mesh cutoff (required, used) =   300.000   322.366 Ry
New grid distribution [1]: sub = 2

        iscf     Eharris(eV)        E_KS(eV)     FreeEng(eV)     dDmax    Ef(eV) dHmax(eV)
   scf:    1     -923.017610     -923.047126     -923.118802  0.009336 -7.050121  0.236839
   scf:    2     -923.041924     -923.045629     -923.117294  0.014962 -7.245800  0.161668
   scf:    3     -923.047722     -923.046810     -923.118483  0.005951 -7.190211  0.121825
   scf:    4     -923.047079     -923.046949     -923.118624  0.001449 -7.189132  0.113336
   scf:    5     -923.047452     -923.047339     -923.119015  0.007299 -7.184131  0.063627
   scf:    6     -923.047358     -923.047349     -923.119026  0.000615 -7.185044  0.060534
   scf:    7     -923.047071     -923.047290     -923.118963  0.007567 -7.199354  0.056075
   scf:    8     -923.047298     -923.047295     -923.118968  0.000546 -7.201967  0.054805
   scf:    9     -923.047259     -923.047295     -923.118972  0.003994 -7.221068  0.042908
   scf:   10     -923.047310     -923.047303     -923.118980  0.000705 -7.224856  0.037547
   scf:   11     -923.047340     -923.047327     -923.119003  0.001953 -7.237987  0.027546
   scf:   12     -923.047350     -923.047339     -923.119015  0.000400 -7.239424  0.025780
   scf:   13     -923.047383     -923.047366     -923.119043  0.001375 -7.243474  0.019668
   scf:   14     -923.047369     -923.047368     -923.119044  0.000182 -7.243395  0.018411
   scf:   15     -923.047371     -923.047372     -923.119049  0.001053 -7.242665  0.010521
   scf:   16     -923.047372     -923.047372     -923.119049  0.000092 -7.242412  0.010730
   scf:   17     -923.047365     -923.047370     -923.119047  0.000961 -7.239206  0.012494
   scf:   18     -923.047369     -923.047370     -923.119047  0.000041 -7.238405  0.012073
   scf:   19     -923.047367     -923.047368     -923.119045  0.000054 -7.234101  0.009128
   scf:   20     -923.047370     -923.047369     -923.119046  0.000125 -7.233143  0.007658
   scf:   21     -923.047372     -923.047371     -923.119048  0.000360 -7.230604  0.006127
   scf:   22     -923.047372     -923.047372     -923.119048  0.000056 -7.230333  0.005736
   scf:   23     -923.047373     -923.047373     -923.119050  0.000146 -7.229595  0.004346
   scf:   24     -923.047373     -923.047373     -923.119050  0.000026 -7.229617  0.004072
   scf:   25     -923.047373     -923.047373     -923.119050  0.000158 -7.229811  0.002609
   scf:   26     -923.047373     -923.047373     -923.119050  0.000007 -7.229878  0.002656
   scf:   27     -923.047373     -923.047373     -923.119050  0.000079 -7.230677  0.003194
   scf:   28     -923.047373     -923.047373     -923.119050  0.000009 -7.230882  0.003110
   scf:   29     -923.047373     -923.047373     -923.119050  0.000029 -7.231912  0.002481
   scf:   30     -923.047373     -923.047373     -923.119050  0.000009 -7.232145  0.002151
   scf:   31     -923.047373     -923.047373     -923.119050  0.000031 -7.232781  0.001225
   scf:   32     -923.047373     -923.047373     -923.119050  0.000009 -7.232860  0.001191
   scf:   33     -923.047373     -923.047373     -923.119050  0.000029 -7.233098  0.001047
   scf:   34     -923.047373     -923.047373     -923.119050  0.000003 -7.233107  0.000997

SCF Convergence by DM+H criterion
max |DM_out - DM_in|         :     0.0000029808
max |H_out - H_in|      (eV) :     0.0009968536
SCF cycle converged after 34 iterations

Using DM_out to compute the final energy and forces
No. of atoms with KB's overlaping orbs in proc 0. Max # of overlaps:       4      22

siesta: E_KS(eV) =             -923.0474

siesta: Atomic forces (eV/Ang):
----------------------------------------
   Tot    0.003590   -0.000685   -0.001043
----------------------------------------
   Max    4.162506
   Res    1.710524    sqrt( Sum f_i^2 / 3N )
----------------------------------------
   Max    4.162506    constrained

Stress tensor Voigt[x,y,z,yz,xz,xy] (kbar):       -1.64       -0.01       -0.01       -0.00       -0.01       -0.00
(Free)E + p*V (eV/cell)     -920.3664
Target enthalpy (eV/cell)     -923.1190

siesta: Stress tensor (static) (eV/Ang**3):
        -0.000702    0.000000    0.000000
         0.000000    0.000001   -0.000000
         0.000000   -0.000000    0.000001

siesta: Pressure (static):          0.37382075  kBar

siesta: Stress tensor (total) (eV/Ang**3):
        -0.001022   -0.000003   -0.000004
        -0.000003   -0.000007   -0.000001
        -0.000004   -0.000001   -0.000003

siesta: Pressure (total):          0.55126926  kBar

siesta: Temp_ion =    3566.977 K

                     ====================================
                        Begin MD step =      4
                     ====================================

outcell: Unit cell vectors (Ang):
       20.000000    0.000000    0.000000
        0.000000   20.000000    0.000000
        0.000000    0.000000   20.000000

outcell: Cell vector modules (Ang)   :   20.000000   20.000000   20.000000
outcell: Cell angles (23,13,12) (deg):     90.0000     90.0000     90.0000
outcell: Cell volume (Ang**3)        :   8000.0000
<dSpData1D:S at geom step 4
  <sparsity:sparsity for geom step 4
    nrows_g=26 nrows=26 sparsity=1.0000 nnzs=676, refcount: 7>
  <dData1D:(new from dSpData1D) n=676, refcount: 1>
refcount: 1>
new_DM -- step:     4
Re-using DM from previous geometries...
Number of DMs in history: 1
 DM extrapolation coefficients: 
1   1.00000
New DM after history re-use:
<dSpData2D:SpM extrapolated using coords
  <sparsity:sparsity for geom step 4
    nrows_g=26 nrows=26 sparsity=1.0000 nnzs=676, refcount: 9>
  <dData2D:(temp array for extrapolation) n=676 m=1, refcount: 1>
refcount: 1>
Note: For starting DM, Qtot, Tr[D*S] =         14.00000000         13.97788751
No. of atoms with KB's overlaping orbs in proc 0. Max # of overlaps:       4      22

InitMesh: MESH = 216 x 216 x 216 = 10077696
InitMesh: Mesh cutoff (required, used) =   300.000   322.366 Ry
New grid distribution [1]: sub = 2

        iscf     Eharris(eV)        E_KS(eV)     FreeEng(eV)     dDmax    Ef(eV) dHmax(eV)
   scf:    1     -923.090130     -923.071237     -923.142914  0.011668 -7.040964  0.302502
   scf:    2     -923.063614     -923.069021     -923.140697  0.011070 -7.294065  0.193135
   scf:    3     -923.071964     -923.070661     -923.142338  0.003870 -7.227020  0.160678
   scf:    4     -923.071097     -923.070886     -923.142562  0.000887 -7.224854  0.149240
   scf:    5     -923.071834     -923.071521     -923.143198  0.004108 -7.215826  0.090517
   scf:    6     -923.071542     -923.071532     -923.143209  0.000264 -7.217040  0.086063
   scf:    7     -923.071328     -923.071501     -923.143178  0.003463 -7.236413  0.074718
   scf:    8     -923.071488     -923.071495     -923.143172  0.000242 -7.239446  0.073268
   scf:    9     -923.071355     -923.071432     -923.143109  0.002063 -7.269324  0.054139
   scf:   10     -923.071466     -923.071449     -923.143126  0.000172 -7.273920  0.046733
   scf:   11     -923.071572     -923.071516     -923.143193  0.000565 -7.291218  0.034974
   scf:   12     -923.071542     -923.071529     -923.143206  0.000255 -7.292178  0.032595
   scf:   13     -923.071586     -923.071565     -923.143242  0.001038 -7.295824  0.021717
   scf:   14     -923.071567     -923.071566     -923.143243  0.000051 -7.295582  0.020567
   scf:   15     -923.071563     -923.071568     -923.143245  0.000562 -7.292448  0.015190
   scf:   16     -923.071568     -923.071568     -923.143245  0.000031 -7.291961  0.015091
   scf:   17     -923.071559     -923.071564     -923.143241  0.000342 -7.285657  0.012761
   scf:   18     -923.071565     -923.071564     -923.143241  0.000017 -7.284611  0.011383
   scf:   19     -923.071569     -923.071567     -923.143244  0.000099 -7.280206  0.007496
   scf:   20     -923.071568     -923.071568     -923.143245  0.000045 -7.279859  0.007062
   scf:   21     -923.071571     -923.071570     -923.143246  0.000171 -7.278644  0.005163
   scf:   22     -923.071570     -923.071570     -923.143247  0.000012 -7.278687  0.004859
   scf:   23     -923.071570     -923.071570     -923.143247  0.000102 -7.279128  0.002984
   scf:   24     -923.071570     -923.071570     -923.143247  0.000005 -7.279205  0.002998
   scf:   25     -923.071569     -923.071570     -923.143247  0.000065 -7.280505  0.002989
   scf:   26     -923.071570     -923.071570     -923.143247  0.000009 -7.280727  0.002769
   scf:   27     -923.071570     -923.071570     -923.143247  0.000041 -7.281839  0.001490
   scf:   28     -923.071570     -923.071570     -923.143247  0.000008 -7.281953  0.001392
   scf:   29     -923.071570     -923.071570     -923.143247  0.000030 -7.282340  0.001107
   scf:   30     -923.071570     -923.071570     -923.143247  0.000003 -7.282339  0.001032
   scf:   31     -923.071570     -923.071570     -923.143247  0.000021 -7.282318  0.000822

SCF Convergence by DM+H criterion
max |DM_out - DM_in|         :     0.0000213999
max |H_out - H_in|      (eV) :     0.0008220009
SCF cycle converged after 31 iterations

Using DM_out to compute the final energy and forces
No. of atoms with KB's overlaping orbs in proc 0. Max # of overlaps:       4      22

siesta: E_KS(eV) =             -923.0716

siesta: Atomic forces (eV/Ang):
----------------------------------------
   Tot    0.001140   -0.000473   -0.000749
----------------------------------------
   Max    3.560952
   Res    1.483434    sqrt( Sum f_i^2 / 3N )
----------------------------------------
   Max    3.560952    constrained

Stress tensor Voigt[x,y,z,yz,xz,xy] (kbar):       -1.30       -0.01       -0.01       -0.00       -0.01       -0.02
(Free)E + p*V (eV/cell)     -920.9595
Target enthalpy (eV/cell)     -923.1432

siesta: Stress tensor (static) (eV/Ang**3):
        -0.000475   -0.000002    0.000003
        -0.000002    0.000001    0.000000
         0.000003    0.000000    0.000001

siesta: Pressure (static):          0.25266808  kBar

siesta: Stress tensor (total) (eV/Ang**3):
        -0.000809   -0.000011   -0.000004
        -0.000011   -0.000007   -0.000001
        -0.000004   -0.000001   -0.000003

siesta: Pressure (total):          0.43734593  kBar

siesta: Temp_ion =    3632.290 K

                     ====================================
                        Begin MD step =      5
                     ====================================

outcell: Unit cell vectors (Ang):
       20.000000    0.000000    0.000000
        0.000000   20.000000    0.000000
        0.000000    0.000000   20.000000

outcell: Cell vector modules (Ang)   :   20.000000   20.000000   20.000000
outcell: Cell angles (23,13,12) (deg):     90.0000     90.0000     90.0000
outcell: Cell volume (Ang**3)        :   8000.0000
<dSpData1D:S at geom step 5
  <sparsity:sparsity for geom step 5
    nrows_g=26 nrows=26 sparsity=1.0000 nnzs=676, refcount: 7>
  <dData1D:(new from dSpData1D) n=676, refcount: 1>
refcount: 1>
new_DM -- step:     5
Re-using DM from previous geometries...
Number of DMs in history: 1
 DM extrapolation coefficients: 
1   1.00000
New DM after history re-use:
<dSpData2D:SpM extrapolated using coords
  <sparsity:sparsity for geom step 5
    nrows_g=26 nrows=26 sparsity=1.0000 nnzs=676, refcount: 9>
  <dData2D:(temp array for extrapolation) n=676 m=1, refcount: 1>
refcount: 1>
Note: For starting DM, Qtot, Tr[D*S] =         14.00000000         13.98297614
No. of atoms with KB's overlaping orbs in proc 0. Max # of overlaps:       4      22

InitMesh: MESH = 216 x 216 x 216 = 10077696
InitMesh: Mesh cutoff (required, used) =   300.000   322.366 Ry
New grid distribution [1]: sub = 2

        iscf     Eharris(eV)        E_KS(eV)     FreeEng(eV)     dDmax    Ef(eV) dHmax(eV)
   scf:    1     -923.170933     -923.067345     -923.139022  0.011525 -7.163793  0.232445
   scf:    2     -923.060261     -923.065273     -923.136947  0.012998 -7.354849  0.169986
   scf:    3     -923.068249     -923.066980     -923.138656  0.005490 -7.292362  0.152896
   scf:    4     -923.067289     -923.067140     -923.138816  0.001054 -7.291758  0.141899
   scf:    5     -923.067757     -923.067614     -923.139290  0.005700 -7.289515  0.074880
   scf:    6     -923.067622     -923.067618     -923.139295  0.000422 -7.290770  0.071254
   scf:    7     -923.067276     -923.067517     -923.139192  0.006479 -7.315008  0.073137
   scf:    8     -923.067515     -923.067516     -923.139192  0.000483 -7.318998  0.069891
   scf:    9     -923.067497     -923.067515     -923.139192  0.003340 -7.347226  0.043625
   scf:   10     -923.067557     -923.067536     -923.139213  0.000514 -7.351048  0.036006
   scf:   11     -923.067647     -923.067600     -923.139276  0.001496 -7.363994  0.031759
   scf:   12     -923.067617     -923.067609     -923.139285  0.000326 -7.364373  0.029414
   scf:   13     -923.067642     -923.067632     -923.139309  0.001496 -7.365899  0.017540
   scf:   14     -923.067633     -923.067632     -923.139309  0.000055 -7.365659  0.016657
   scf:   15     -923.067624     -923.067631     -923.139308  0.000730 -7.361816  0.015130
   scf:   16     -923.067630     -923.067631     -923.139307  0.000039 -7.361170  0.014768
   scf:   17     -923.067626     -923.067628     -923.139305  0.000317 -7.355449  0.010567
   scf:   18     -923.067630     -923.067629     -923.139306  0.000051 -7.354535  0.008993
   scf:   19     -923.067634     -923.067632     -923.139309  0.000170 -7.351322  0.006998
   scf:   20     -923.067633     -923.067632     -923.139309  0.000042 -7.351138  0.006501
   scf:   21     -923.067634     -923.067634     -923.139311  0.000173 -7.350464  0.004305
   scf:   22     -923.067634     -923.067634     -923.139311  0.000007 -7.350508  0.004061
   scf:   23     -923.067634     -923.067634     -923.139311  0.000076 -7.351046  0.003114
   scf:   24     -923.067634     -923.067634     -923.139311  0.000005 -7.351140  0.003085
   scf:   25     -923.067633     -923.067634     -923.139311  0.000053 -7.352207  0.002548
   scf:   26     -923.067634     -923.067634     -923.139311  0.000008 -7.352394  0.002256
   scf:   27     -923.067634     -923.067634     -923.139311  0.000031 -7.353140  0.001434
   scf:   28     -923.067634     -923.067634     -923.139311  0.000007 -7.353205  0.001344
   scf:   29     -923.067634     -923.067634     -923.139311  0.000026 -7.353428  0.000961

SCF Convergence by DM+H criterion
max |DM_out - DM_in|         :     0.0000261693
max |H_out - H_in|      (eV) :     0.0009609042
SCF cycle converged after 29 iterations

Using DM_out to compute the final energy and forces
No. of atoms with KB's overlaping orbs in proc 0. Max # of overlaps:       4      22

siesta: E_KS(eV) =             -923.0676

siesta: Atomic forces (eV/Ang):
----------------------------------------
   Tot    0.000985    0.000165    0.000207
----------------------------------------
   Max    2.703207
   Res    1.250242    sqrt( Sum f_i^2 / 3N )
----------------------------------------
   Max    2.703207    constrained

Stress tensor Voigt[x,y,z,yz,xz,xy] (kbar):       -0.95       -0.01       -0.00       -0.00        0.01       -0.02
(Free)E + p*V (eV/cell)     -921.5241
Target enthalpy (eV/cell)     -923.1393

siesta: Stress tensor (static) (eV/Ang**3):
        -0.000256    0.000000    0.000009
         0.000000    0.000001    0.000000
         0.000009    0.000000    0.000001

siesta: Pressure (static):          0.13542515  kBar

siesta: Stress tensor (total) (eV/Ang**3):
        -0.000596   -0.000013    0.000003
        -0.000013   -0.000007   -0.000001
         0.000003   -0.000001   -0.000003

siesta: Pressure (total):          0.32348456  kBar

siesta: Temp_ion =    3630.214 K

                     ====================================
                        Begin MD step =      6
                     ====================================

outcell: Unit cell vectors (Ang):
       20.000000    0.000000    0.000000
        0.000000   20.000000    0.000000
        0.000000    0.000000   20.000000

outcell: Cell vector modules (Ang)   :   20.000000   20.000000   20.000000
outcell: Cell angles (23,13,12) (deg):     90.0000     90.0000     90.0000
outcell: Cell volume (Ang**3)        :   8000.0000
<dSpData1D:S at geom step 6
  <sparsity:sparsity for geom step 6
    nrows_g=26 nrows=26 sparsity=1.0000 nnzs=676, refcount: 7>
  <dData1D:(new from dSpData1D) n=676, refcount: 1>
refcount: 1>
new_DM -- step:     6
Re-using DM from previous geometries...
Number of DMs in history: 1
 DM extrapolation coefficients: 
1   1.00000
New DM after history re-use:
<dSpData2D:SpM extrapolated using coords
  <sparsity:sparsity for geom step 6
    nrows_g=26 nrows=26 sparsity=1.0000 nnzs=676, refcount: 9>
  <dData2D:(temp array for extrapolation) n=676 m=1, refcount: 1>
refcount: 1>
No. of atoms with KB's overlaping orbs in proc 0. Max # of overlaps:       4      22

InitMesh: MESH = 216 x 216 x 216 = 10077696
InitMesh: Mesh cutoff (required, used) =   300.000   322.366 Ry
New grid distribution [1]: sub = 2

        iscf     Eharris(eV)        E_KS(eV)     FreeEng(eV)     dDmax    Ef(eV) dHmax(eV)
   scf:    1     -923.292233     -923.082362     -923.154039  0.014780 -7.381497  0.078455
   scf:    2     -923.081004     -923.082205     -923.153876  0.010327 -7.422908  0.105717
   scf:    3     -923.083054     -923.082785     -923.154461  0.006208 -7.401956  0.056704
   scf:    4     -923.082810     -923.082798     -923.154474  0.000631 -7.402642  0.053671
   scf:    5     -923.082762     -923.082826     -923.154501  0.006087 -7.411065  0.035009
   scf:    6     -923.082836     -923.082831     -923.154507  0.000607 -7.412220  0.034523
   scf:    7     -923.082763     -923.082823     -923.154499  0.005742 -7.425139  0.032725
   scf:    8     -923.082821     -923.082822     -923.154498  0.000236 -7.428017  0.030345
   scf:    9     -923.082827     -923.082826     -923.154502  0.000231 -7.439447  0.018190
   scf:   10     -923.082841     -923.082834     -923.154510  0.000737 -7.440987  0.014300
   scf:   11     -923.082853     -923.082847     -923.154524  0.002050 -7.445002  0.010619
   scf:   12     -923.082850     -923.082849     -923.154526  0.000155 -7.445131  0.010150
   scf:   13     -923.082855     -923.082853     -923.154530  0.000656 -7.445678  0.007771
   scf:   14     -923.082854     -923.082853     -923.154530  0.000092 -7.445601  0.007503
   scf:   15     -923.082857     -923.082856     -923.154533  0.000715 -7.444804  0.008310
   scf:   16     -923.082857     -923.082856     -923.154533  0.000022 -7.444563  0.008318
   scf:   17     -923.082858     -923.082858     -923.154534  0.000119 -7.443200  0.008050
   scf:   18     -923.082858     -923.082858     -923.154535  0.000077 -7.442873  0.007572
   scf:   19     -923.082857     -923.082858     -923.154535  0.000271 -7.441605  0.005561
   scf:   20     -923.082858     -923.082858     -923.154535  0.000028 -7.441323  0.005000
   scf:   21     -923.082857     -923.082857     -923.154534  0.000087 -7.440059  0.003502
   scf:   22     -923.082857     -923.082857     -923.154534  0.000027 -7.439735  0.003634
   scf:   23     -923.082857     -923.082857     -923.154534  0.000107 -7.438369  0.004016
   scf:   24     -923.082857     -923.082857     -923.154534  0.000018 -7.438008  0.003951
   scf:   25     -923.082858     -923.082857     -923.154534  0.000040 -7.436942  0.003607
   scf:   26     -923.082858     -923.082857     -923.154534  0.000012 -7.436741  0.003397
   scf:   27     -923.082858     -923.082858     -923.154535  0.000041 -7.436228  0.002720
   scf:   28     -923.082858     -923.082858     -923.154535  0.000011 -7.436187  0.002523
   scf:   29     -923.082858     -923.082858     -923.154535  0.000039 -7.436075  0.002242
   scf:   30     -923.082858     -923.082858     -923.154535  0.000006 -7.436101  0.002317
   scf:   31     -923.082858     -923.082858     -923.154535  0.000030 -7.436273  0.002613
   scf:   32     -923.082858     -923.082858     -923.154535  0.000006 -7.436349  0.002587
   scf:   33     -923.082858     -923.082858     -923.154535  0.000027 -7.436730  0.002384
   scf:   34     -923.082858     -923.082858     -923.154535  0.000005 -7.436854  0.002258
   scf:   35     -923.082858     -923.082858     -923.154535  0.000019 -7.437358  0.001718
   scf:   36     -923.082858     -923.082858     -923.154535  0.000004 -7.437516  0.001526
   scf:   37     -923.082858     -923.082858     -923.154535  0.000013 -7.438067  0.001409
   scf:   38     -923.082858     -923.082858     -923.154535  0.000003 -7.438233  0.001452
   scf:   39     -923.082858     -923.082858     -923.154535  0.000006 -7.438726  0.001547
   scf:   40     -923.082858     -923.082858     -923.154535  0.000002 -7.438853  0.001517
   scf:   41     -923.082858     -923.082858     -923.154535  0.000006 -7.439191  0.001399
   scf:   42     -923.082858     -923.082858     -923.154535  0.000003 -7.439254  0.001334
   scf:   43     -923.082858     -923.082858     -923.154535  0.000010 -7.439426  0.001106
   scf:   44     -923.082858     -923.082858     -923.154535  0.000003 -7.439442  0.001031
   scf:   45     -923.082858     -923.082858     -923.154535  0.000011 -7.439481  0.000996

SCF Convergence by DM+H criterion
max |DM_out - DM_in|         :     0.0000111689
max |H_out - H_in|      (eV) :     0.0009963362
SCF cycle converged after 45 iterations

Using DM_out to compute the final energy and forces
No. of atoms with KB's overlaping orbs in proc 0. Max # of overlaps:       4      22

siesta: E_KS(eV) =             -923.0829

siesta: Atomic forces (eV/Ang):
----------------------------------------
   Tot    0.000940    0.000123    0.000076
----------------------------------------
   Max    1.706438
   Res    0.966785    sqrt( Sum f_i^2 / 3N )
----------------------------------------
   Max    1.706438    constrained

Stress tensor Voigt[x,y,z,yz,xz,xy] (kbar):       -0.67       -0.01       -0.00       -0.00        0.02       -0.02
(Free)E + p*V (eV/cell)     -922.0239
Target enthalpy (eV/cell)     -923.1545

siesta: Stress tensor (static) (eV/Ang**3):
        -0.000075    0.000004    0.000015
         0.000004    0.000001    0.000001
         0.000015    0.000001    0.000002

siesta: Pressure (static):          0.03847513  kBar

siesta: Stress tensor (total) (eV/Ang**3):
        -0.000415   -0.000009    0.000013
        -0.000009   -0.000007   -0.000000
         0.000013   -0.000000   -0.000002

siesta: Pressure (total):          0.22642706  kBar

siesta: Temp_ion =    3671.526 K

                     ====================================
                        Begin MD step =      7
                     ====================================

outcell: Unit cell vectors (Ang):
       20.000000    0.000000    0.000000
        0.000000   20.000000    0.000000
        0.000000    0.000000   20.000000

outcell: Cell vector modules (Ang)   :   20.000000   20.000000   20.000000
outcell: Cell angles (23,13,12) (deg):     90.0000     90.0000     90.0000
outcell: Cell volume (Ang**3)        :   8000.0000
<dSpData1D:S at geom step 7
  <sparsity:sparsity for geom step 7
    nrows_g=26 nrows=26 sparsity=1.0000 nnzs=676, refcount: 7>
  <dData1D:(new from dSpData1D) n=676, refcount: 1>
refcount: 1>
new_DM -- step:     7
Re-using DM from previous geometries...
Number of DMs in history: 1
 DM extrapolation coefficients: 
1   1.00000
New DM after history re-use:
<dSpData2D:SpM extrapolated using coords
  <sparsity:sparsity for geom step 7
    nrows_g=26 nrows=26 sparsity=1.0000 nnzs=676, refcount: 9>
  <dData2D:(temp array for extrapolation) n=676 m=1, refcount: 1>
refcount: 1>
No. of atoms with KB's overlaping orbs in proc 0. Max # of overlaps:       4      26

InitMesh: MESH = 216 x 216 x 216 = 10077696
InitMesh: Mesh cutoff (required, used) =   300.000   322.366 Ry
New grid distribution [1]: sub = 2

        iscf     Eharris(eV)        E_KS(eV)     FreeEng(eV)     dDmax    Ef(eV) dHmax(eV)
   scf:    1     -923.434314     -923.129979     -923.201655  0.017046 -7.630027  0.163998
   scf:    2     -923.128324     -923.130223     -923.201892  0.012253 -7.495561  0.143214
   scf:    3     -923.131908     -923.131232     -923.202907  0.005912 -7.545006  0.052307
   scf:    4     -923.131296     -923.131265     -923.202941  0.001062 -7.544809  0.047117
   scf:    5     -923.131320     -923.131351     -923.203027  0.006772 -7.543112  0.015915
   scf:    6     -923.131361     -923.131356     -923.203033  0.000677 -7.542830  0.014825
   scf:    7     -923.131300     -923.131350     -923.203026  0.005415 -7.539964  0.016638
   scf:    8     -923.131342     -923.131346     -923.203022  0.000401 -7.538978  0.016812
   scf:    9     -923.131324     -923.131336     -923.203011  0.000803 -7.533577  0.015340
   scf:   10     -923.131354     -923.131345     -923.203021  0.000858 -7.531971  0.012845
   scf:   11     -923.131368     -923.131360     -923.203036  0.001961 -7.529148  0.007326
   scf:   12     -923.131364     -923.131362     -923.203039  0.000598 -7.528675  0.006327
   scf:   13     -923.131365     -923.131364     -923.203041  0.001124 -7.527748  0.004689
   scf:   14     -923.131365     -923.131365     -923.203042  0.000036 -7.527671  0.004233
   scf:   15     -923.131366     -923.131365     -923.203042  0.000112 -7.527486  0.003989
   scf:   16     -923.131366     -923.131365     -923.203042  0.000085 -7.527508  0.003918
   scf:   17     -923.131365     -923.131366     -923.203043  0.000413 -7.527675  0.003449
   scf:   18     -923.131366     -923.131366     -923.203043  0.000043 -7.527761  0.003246
   scf:   19     -923.131365     -923.131366     -923.203042  0.000107 -7.528202  0.003664
   scf:   20     -923.131366     -923.131366     -923.203043  0.000049 -7.528398  0.003564
   scf:   21     -923.131366     -923.131366     -923.203043  0.000147 -7.528895  0.003055
   scf:   22     -923.131366     -923.131366     -923.203043  0.000062 -7.529071  0.002734
   scf:   23     -923.131366     -923.131366     -923.203043  0.000106 -7.529430  0.001993
   scf:   24     -923.131366     -923.131366     -923.203043  0.000012 -7.529539  0.001687
   scf:   25     -923.131366     -923.131366     -923.203043  0.000023 -7.529807  0.001551
   scf:   26     -923.131366     -923.131366     -923.203043  0.000018 -7.529895  0.001547
   scf:   27     -923.131366     -923.131366     -923.203043  0.000051 -7.530156  0.001476
   scf:   28     -923.131366     -923.131366     -923.203043  0.000012 -7.530252  0.001392
   scf:   29     -923.131366     -923.131366     -923.203043  0.000019 -7.530491  0.001161
   scf:   30     -923.131366     -923.131366     -923.203043  0.000005 -7.530567  0.001166
   scf:   31     -923.131366     -923.131366     -923.203043  0.000015 -7.530705  0.001149
   scf:   32     -923.131366     -923.131366     -923.203043  0.000008 -7.530731  0.001118
   scf:   33     -923.131366     -923.131366     -923.203043  0.000018 -7.530772  0.001029
   scf:   34     -923.131366     -923.131366     -923.203043  0.000004 -7.530769  0.000989

SCF Convergence by DM+H criterion
max |DM_out - DM_in|         :     0.0000036618
max |H_out - H_in|      (eV) :     0.0009888011
SCF cycle converged after 34 iterations

Using DM_out to compute the final energy and forces
No. of atoms with KB's overlaping orbs in proc 0. Max # of overlaps:       4      26

siesta: E_KS(eV) =             -923.1314

siesta: Atomic forces (eV/Ang):
----------------------------------------
   Tot   -0.000141    0.000103    0.000009
----------------------------------------
   Max    1.361819
   Res    0.623869    sqrt( Sum f_i^2 / 3N )
----------------------------------------
   Max    1.361819    constrained

Stress tensor Voigt[x,y,z,yz,xz,xy] (kbar):       -0.47       -0.01       -0.00        0.00        0.03       -0.01
(Free)E + p*V (eV/cell)     -922.3992
Target enthalpy (eV/cell)     -923.2030

siesta: Stress tensor (static) (eV/Ang**3):
         0.000051    0.000007    0.000016
         0.000007    0.000001    0.000001
         0.000016    0.000001    0.000002

siesta: Pressure (static):         -0.02911334  kBar

siesta: Stress tensor (total) (eV/Ang**3):
        -0.000294   -0.000006    0.000019
        -0.000006   -0.000006    0.000000
         0.000019    0.000000   -0.000001

siesta: Pressure (total):          0.16097750  kBar

siesta: Temp_ion =    3790.699 K

                     ====================================
                        Begin MD step =      8
                     ====================================

outcell: Unit cell vectors (Ang):
       20.000000    0.000000    0.000000
        0.000000   20.000000    0.000000
        0.000000    0.000000   20.000000

outcell: Cell vector modules (Ang)   :   20.000000   20.000000   20.000000
outcell: Cell angles (23,13,12) (deg):     90.0000     90.0000     90.0000
outcell: Cell volume (Ang**3)        :   8000.0000
<dSpData1D:S at geom step 8
  <sparsity:sparsity for geom step 8
    nrows_g=26 nrows=26 sparsity=1.0000 nnzs=676, refcount: 7>
  <dData1D:(new from dSpData1D) n=676, refcount: 1>
refcount: 1>
new_DM -- step:     8
Re-using DM from previous geometries...
Number of DMs in history: 1
 DM extrapolation coefficients: 
1   1.00000
New DM after history re-use:
<dSpData2D:SpM extrapolated using coords
  <sparsity:sparsity for geom step 8
    nrows_g=26 nrows=26 sparsity=1.0000 nnzs=676, refcount: 9>
  <dData2D:(temp array for extrapolation) n=676 m=1, refcount: 1>
refcount: 1>
Note: For starting DM, Qtot, Tr[D*S] =         14.00000000         14.02216198
No. of atoms with KB's overlaping orbs in proc 0. Max # of overlaps:       4      26

InitMesh: MESH = 216 x 216 x 216 = 10077696
InitMesh: Mesh cutoff (required, used) =   300.000   322.366 Ry
New grid distribution [1]: sub = 2

        iscf     Eharris(eV)        E_KS(eV)     FreeEng(eV)     dDmax    Ef(eV) dHmax(eV)
   scf:    1     -923.530959     -923.175361     -923.247038  0.018015 -7.842248  0.338704
   scf:    2     -923.159361     -923.171735     -923.243403  0.019623 -7.572435  0.340911
   scf:    3     -923.180249     -923.176830     -923.248505  0.009537 -7.678683  0.174369
   scf:    4     -923.177337     -923.177091     -923.248767  0.001374 -7.677891  0.159276
   scf:    5     -923.177995     -923.177914     -923.249590  0.008765 -7.671175  0.054516
   scf:    6     -923.177923     -923.177919     -923.249595  0.000655 -7.670034  0.053763
   scf:    7     -923.177139     -923.177685     -923.249346  0.014052 -7.638721  0.055678
   scf:    8     -923.177786     -923.177737     -923.249402  0.001568 -7.634696  0.049403
   scf:    9     -923.177962     -923.177892     -923.249568  0.007534 -7.617502  0.025534
   scf:   10     -923.177917     -923.177906     -923.249582  0.000968 -7.616540  0.022882
   scf:   11     -923.177927     -923.177928     -923.249604  0.003246 -7.613007  0.015388
   scf:   12     -923.177932     -923.177930     -923.249607  0.000380 -7.613116  0.014037
   scf:   13     -923.177928     -923.177933     -923.249610  0.002215 -7.613978  0.008146
   scf:   14     -923.177934     -923.177933     -923.249610  0.000079 -7.614195  0.008240
   scf:   15     -923.177931     -923.177933     -923.249610  0.000816 -7.616516  0.008750
   scf:   16     -923.177933     -923.177933     -923.249610  0.000153 -7.617167  0.008283
   scf:   17     -923.177931     -923.177932     -923.249609  0.000461 -7.619974  0.005976
   scf:   18     -923.177933     -923.177933     -923.249610  0.000074 -7.620617  0.004753
   scf:   19     -923.177935     -923.177934     -923.249611  0.000259 -7.621973  0.004256
   scf:   20     -923.177934     -923.177934     -923.249611  0.000099 -7.622083  0.003818
   scf:   21     -923.177935     -923.177935     -923.249611  0.000264 -7.622350  0.002599
   scf:   22     -923.177935     -923.177935     -923.249611  0.000006 -7.622325  0.002417
   scf:   23     -923.177935     -923.177935     -923.249612  0.000048 -7.622115  0.001825
   scf:   24     -923.177935     -923.177935     -923.249612  0.000008 -7.622057  0.001847
   scf:   25     -923.177934     -923.177934     -923.249611  0.000063 -7.621515  0.001880
   scf:   26     -923.177934     -923.177934     -923.249611  0.000007 -7.621351  0.001724
   scf:   27     -923.177935     -923.177935     -923.249611  0.000021 -7.620803  0.001062
   scf:   28     -923.177935     -923.177935     -923.249611  0.000011 -7.620690  0.001001
   scf:   29     -923.177935     -923.177935     -923.249612  0.000027 -7.620462  0.000882

SCF Convergence by DM+H criterion
max |DM_out - DM_in|         :     0.0000274236
max |H_out - H_in|      (eV) :     0.0008823734
SCF cycle converged after 29 iterations

Using DM_out to compute the final energy and forces
No. of atoms with KB's overlaping orbs in proc 0. Max # of overlaps:       4      26

siesta: E_KS(eV) =             -923.1779

siesta: Atomic forces (eV/Ang):
----------------------------------------
   Tot    0.000475   -0.000212    0.000096
----------------------------------------
   Max    0.571059
   Res    0.261452    sqrt( Sum f_i^2 / 3N )
----------------------------------------
   Max    0.571059    constrained

Stress tensor Voigt[x,y,z,yz,xz,xy] (kbar):       -0.39       -0.01       -0.00        0.00        0.02       -0.01
(Free)E + p*V (eV/cell)     -922.5772
Target enthalpy (eV/cell)     -923.2496

siesta: Stress tensor (static) (eV/Ang**3):
         0.000112    0.000006    0.000007
         0.000006    0.000001    0.000001
         0.000007    0.000001    0.000002

siesta: Pressure (static):         -0.06158643  kBar

siesta: Stress tensor (total) (eV/Ang**3):
        -0.000245   -0.000005    0.000014
        -0.000005   -0.000006    0.000000
         0.000014    0.000000   -0.000001

siesta: Pressure (total):          0.13467449  kBar

siesta: Temp_ion =    3900.321 K

                     ====================================
                        Begin MD step =      9
                     ====================================

outcell: Unit cell vectors (Ang):
       20.000000    0.000000    0.000000
        0.000000   20.000000    0.000000
        0.000000    0.000000   20.000000

outcell: Cell vector modules (Ang)   :   20.000000   20.000000   20.000000
outcell: Cell angles (23,13,12) (deg):     90.0000     90.0000     90.0000
outcell: Cell volume (Ang**3)        :   8000.0000
<dSpData1D:S at geom step 9
  <sparsity:sparsity for geom step 9
    nrows_g=26 nrows=26 sparsity=1.0000 nnzs=676, refcount: 7>
  <dData1D:(new from dSpData1D) n=676, refcount: 1>
refcount: 1>
new_DM -- step:     9
Re-using DM from previous geometries...
Number of DMs in history: 1
 DM extrapolation coefficients: 
1   1.00000
New DM after history re-use:
<dSpData2D:SpM extrapolated using coords
  <sparsity:sparsity for geom step 9
    nrows_g=26 nrows=26 sparsity=1.0000 nnzs=676, refcount: 9>
  <dData2D:(temp array for extrapolation) n=676 m=1, refcount: 1>
refcount: 1>
Note: For starting DM, Qtot, Tr[D*S] =         14.00000000         14.02503472
No. of atoms with KB's overlaping orbs in proc 0. Max # of overlaps:       4      26

InitMesh: MESH = 216 x 216 x 216 = 10077696
InitMesh: Mesh cutoff (required, used) =   300.000   322.366 Ry
New grid distribution [1]: sub = 2

        iscf     Eharris(eV)        E_KS(eV)     FreeEng(eV)     dDmax    Ef(eV) dHmax(eV)
   scf:    1     -923.505680     -923.160567     -923.232244  0.017698 -7.959311  0.390521
   scf:    2     -923.129956     -923.152547     -923.224214  0.023934 -7.654060  0.442548
   scf:    3     -923.167716     -923.161838     -923.233513  0.012460 -7.787388  0.232705
   scf:    4     -923.162630     -923.162246     -923.233922  0.001462 -7.785602  0.212421
   scf:    5     -923.163548     -923.163530     -923.235205  0.009870 -7.770879  0.077745
   scf:    6     -923.163537     -923.163534     -923.235210  0.000652 -7.769212  0.077136
   scf:    7     -923.162679     -923.163266     -923.234928  0.013964 -7.723785  0.065095
   scf:    8     -923.163399     -923.163335     -923.235002  0.001826 -7.719329  0.056231
   scf:    9     -923.163599     -923.163525     -923.235202  0.008491 -7.699799  0.028936
   scf:   10     -923.163545     -923.163535     -923.235212  0.000518 -7.699388  0.026284
   scf:   11     -923.163565     -923.163560     -923.235237  0.002182 -7.697572  0.013220
   scf:   12     -923.163562     -923.163561     -923.235238  0.000278 -7.697744  0.012275
   scf:   13     -923.163538     -923.163557     -923.235233  0.002989 -7.700131  0.011375
   scf:   14     -923.163558     -923.163557     -923.235234  0.000134 -7.700652  0.011011
   scf:   15     -923.163562     -923.163561     -923.235238  0.001006 -7.703583  0.007912
   scf:   16     -923.163563     -923.163562     -923.235239  0.000364 -7.704154  0.006451
   scf:   17     -923.163563     -923.163563     -923.235240  0.000919 -7.705725  0.004210
   scf:   18     -923.163564     -923.163563     -923.235240  0.000021 -7.705900  0.003828
   scf:   19     -923.163564     -923.163564     -923.235241  0.000143 -7.706358  0.002519
   scf:   20     -923.163564     -923.163564     -923.235241  0.000071 -7.706361  0.002231
   scf:   21     -923.163564     -923.163564     -923.235241  0.000357 -7.706352  0.001804
   scf:   22     -923.163564     -923.163564     -923.235241  0.000012 -7.706328  0.001862
   scf:   23     -923.163564     -923.163564     -923.235241  0.000030 -7.706160  0.001998
   scf:   24     -923.163564     -923.163564     -923.235241  0.000038 -7.706102  0.001821
   scf:   25     -923.163564     -923.163564     -923.235241  0.000113 -7.705929  0.001208
   scf:   26     -923.163564     -923.163564     -923.235241  0.000023 -7.705889  0.000969

SCF Convergence by DM+H criterion
max |DM_out - DM_in|         :     0.0000228515
max |H_out - H_in|      (eV) :     0.0009692724
SCF cycle converged after 26 iterations

Using DM_out to compute the final energy and forces
No. of atoms with KB's overlaping orbs in proc 0. Max # of overlaps:       4      26

siesta: E_KS(eV) =             -923.1636

siesta: Atomic forces (eV/Ang):
----------------------------------------
   Tot    0.000142    0.000270   -0.000526
----------------------------------------
   Max    1.122862
   Res    0.539555    sqrt( Sum f_i^2 / 3N )
----------------------------------------
   Max    1.122862    constrained

Stress tensor Voigt[x,y,z,yz,xz,xy] (kbar):       -0.40       -0.01       -0.00       -0.00       -0.00       -0.02
(Free)E + p*V (eV/cell)     -922.5395
Target enthalpy (eV/cell)     -923.2352

siesta: Stress tensor (static) (eV/Ang**3):
         0.000118   -0.000001   -0.000012
        -0.000001    0.000000   -0.000001
        -0.000012   -0.000001   -0.000001

siesta: Pressure (static):         -0.06260683  kBar

siesta: Stress tensor (total) (eV/Ang**3):
        -0.000251   -0.000011   -0.000003
        -0.000011   -0.000007   -0.000001
        -0.000003   -0.000001   -0.000003

siesta: Pressure (total):          0.13932971  kBar

siesta: Temp_ion =    3861.688 K

                     ====================================
                        Begin MD step =     10
                     ====================================

outcell: Unit cell vectors (Ang):
       20.000000    0.000000    0.000000
        0.000000   20.000000    0.000000
        0.000000    0.000000   20.000000

outcell: Cell vector modules (Ang)   :   20.000000   20.000000   20.000000
outcell: Cell angles (23,13,12) (deg):     90.0000     90.0000     90.0000
outcell: Cell volume (Ang**3)        :   8000.0000
<dSpData1D:S at geom step 10
  <sparsity:sparsity for geom step 10
    nrows_g=26 nrows=26 sparsity=1.0000 nnzs=676, refcount: 7>
  <dData1D:(new from dSpData1D) n=676, refcount: 1>
refcount: 1>
new_DM -- step:    10
[...]
   scf:    6     -923.034165     -923.034162     -923.105838  0.000266 -7.319508  0.006521
   scf:    7     -923.034174     -923.034170     -923.105846  0.001344 -7.319131  0.005888
   scf:    8     -923.034171     -923.034171     -923.105846  0.000078 -7.319047  0.005717
   scf:    9     -923.034168     -923.034170     -923.105845  0.000986 -7.317637  0.003692
   scf:   10     -923.034171     -923.034170     -923.105846  0.000060 -7.317276  0.003488
   scf:   11     -923.034171     -923.034171     -923.105847  0.000323 -7.316060  0.002513
   scf:   12     -923.034171     -923.034171     -923.105847  0.000155 -7.315866  0.002135
   scf:   13     -923.034171     -923.034171     -923.105847  0.000418 -7.315306  0.001619
   scf:   14     -923.034171     -923.034171     -923.105847  0.000052 -7.315178  0.001608
   scf:   15     -923.034171     -923.034171     -923.105847  0.000113 -7.314730  0.001529
   scf:   16     -923.034171     -923.034171     -923.105847  0.000041 -7.314639  0.001482
   scf:   17     -923.034172     -923.034171     -923.105847  0.000126 -7.314423  0.001525
   scf:   18     -923.034172     -923.034171     -923.105847  0.000036 -7.314395  0.001605
   scf:   19     -923.034172     -923.034172     -923.105847  0.000096 -7.314325  0.001818
   scf:   20     -923.034172     -923.034172     -923.105847  0.000004 -7.314329  0.001816
   scf:   21     -923.034172     -923.034172     -923.105847  0.000019 -7.314364  0.001760
   scf:   22     -923.034172     -923.034172     -923.105847  0.000016 -7.314394  0.001701
   scf:   23     -923.034172     -923.034172     -923.105847  0.000050 -7.314515  0.001473
   scf:   24     -923.034172     -923.034172     -923.105847  0.000009 -7.314570  0.001383
   scf:   25     -923.034172     -923.034172     -923.105847  0.000024 -7.314769  0.001187
   scf:   26     -923.034172     -923.034172     -923.105847  0.000010 -7.314852  0.001085
   scf:   27     -923.034172     -923.034172     -923.105847  0.000029 -7.315093  0.000785

SCF Convergence by DM+H criterion
max |DM_out - DM_in|         :     0.0000290847
max |H_out - H_in|      (eV) :     0.0007854048
SCF cycle converged after 27 iterations

Using DM_out to compute the final energy and forces
No. of atoms with KB's overlaping orbs in proc 0. Max # of overlaps:       4      26

siesta: E_KS(eV) =             -923.0342

siesta: Atomic forces (eV/Ang):
----------------------------------------
   Tot   -0.012536   -0.000583   -0.001005
----------------------------------------
   Max    2.965695
   Res    1.522024    sqrt( Sum f_i^2 / 3N )
----------------------------------------
   Max    2.965695    constrained

Stress tensor Voigt[x,y,z,yz,xz,xy] (kbar):       -0.92       -0.27        0.11        0.09       -0.10       -0.24
(Free)E + p*V (eV/cell)     -921.3060
Target enthalpy (eV/cell)     -923.1058

siesta: Stress tensor (static) (eV/Ang**3):
        -0.000305   -0.000273   -0.000058
        -0.000273   -0.000090    0.000056
        -0.000058    0.000056    0.000068

siesta: Pressure (static):          0.17476468  kBar

siesta: Stress tensor (total) (eV/Ang**3):
        -0.000577   -0.000150   -0.000060
        -0.000150   -0.000166    0.000056
        -0.000060    0.000056    0.000067

siesta: Pressure (total):          0.36045657  kBar

siesta: Temp_ion =    3545.564 K

                     ====================================
                        Begin MD step =     55
                     ====================================

outcell: Unit cell vectors (Ang):
       20.000000    0.000000    0.000000
        0.000000   20.000000    0.000000
        0.000000    0.000000   20.000000

outcell: Cell vector modules (Ang)   :   20.000000   20.000000   20.000000
outcell: Cell angles (23,13,12) (deg):     90.0000     90.0000     90.0000
outcell: Cell volume (Ang**3)        :   8000.0000
<dSpData1D:S at geom step 55
  <sparsity:sparsity for geom step 55
    nrows_g=26 nrows=26 sparsity=1.0000 nnzs=676, refcount: 7>
  <dData1D:(new from dSpData1D) n=676, refcount: 1>
refcount: 1>
new_DM -- step:    55
Re-using DM from previous geometries...
Number of DMs in history: 1
 DM extrapolation coefficients: 
1   1.00000
New DM after history re-use:
<dSpData2D:SpM extrapolated using coords
  <sparsity:sparsity for geom step 55
    nrows_g=26 nrows=26 sparsity=1.0000 nnzs=676, refcount: 9>
  <dData2D:(temp array for extrapolation) n=676 m=1, refcount: 1>
refcount: 1>
Note: For starting DM, Qtot, Tr[D*S] =         14.00000000         14.01401612
No. of atoms with KB's overlaping orbs in proc 0. Max # of overlaps:       4      26

InitMesh: MESH = 216 x 216 x 216 = 10077696
InitMesh: Mesh cutoff (required, used) =   300.000   322.366 Ry
New grid distribution [1]: sub = 2

        iscf     Eharris(eV)        E_KS(eV)     FreeEng(eV)     dDmax    Ef(eV) dHmax(eV)
   scf:    1     -923.143087     -923.070765     -923.142440  0.015614 -7.454774  0.197181
   scf:    2     -923.048048     -923.063816     -923.134891  0.059509 -7.291018  0.153567
   scf:    3     -923.073122     -923.069441     -923.140970  0.028811 -7.346251  0.094384
   scf:    4     -923.070749     -923.070146     -923.141738  0.006850 -7.346579  0.088289
   scf:    5     -923.070494     -923.070991     -923.142666  0.024575 -7.347030  0.061572
   scf:    6     -923.071015     -923.071004     -923.142679  0.000151 -7.346268  0.056643
   scf:    7     -923.071058     -923.071053     -923.142729  0.001344 -7.340833  0.041889
   scf:    8     -923.071085     -923.071071     -923.142748  0.001194 -7.339485  0.042498
   scf:    9     -923.070936     -923.071051     -923.142722  0.006380 -7.330592  0.043459
   scf:   10     -923.071017     -923.071034     -923.142703  0.000862 -7.327093  0.040886
   scf:   11     -923.070971     -923.071004     -923.142670  0.001322 -7.314291  0.028762
   scf:   12     -923.071059     -923.071033     -923.142701  0.001045 -7.310219  0.022458
   scf:   13     -923.071112     -923.071080     -923.142753  0.002430 -7.303427  0.021634
   scf:   14     -923.071099     -923.071090     -923.142765  0.000831 -7.302311  0.020319
   scf:   15     -923.071105     -923.071101     -923.142777  0.001527 -7.300281  0.016658
   scf:   16     -923.071104     -923.071103     -923.142779  0.000062 -7.300237  0.015353
   scf:   17     -923.071107     -923.071106     -923.142782  0.000165 -7.300278  0.010601
   scf:   18     -923.071107     -923.071106     -923.142782  0.000104 -7.300469  0.009789
   scf:   19     -923.071105     -923.071106     -923.142782  0.000571 -7.301847  0.010894
   scf:   20     -923.071106     -923.071106     -923.142782  0.000059 -7.302395  0.011012
   scf:   21     -923.071102     -923.071104     -923.142780  0.000136 -7.305132  0.010780
   scf:   22     -923.071104     -923.071104     -923.142780  0.000073 -7.306306  0.009877
   scf:   23     -923.071104     -923.071104     -923.142780  0.000227 -7.309146  0.006962
   scf:   24     -923.071105     -923.071105     -923.142781  0.000094 -7.310051  0.005593
   scf:   25     -923.071107     -923.071106     -923.142782  0.000135 -7.311529  0.005495
   scf:   26     -923.071107     -923.071106     -923.142782  0.000026 -7.311780  0.005079
   scf:   27     -923.071107     -923.071107     -923.142783  0.000055 -7.312219  0.004039
   scf:   28     -923.071107     -923.071107     -923.142783  0.000017 -7.312217  0.003729
   scf:   29     -923.071107     -923.071107     -923.142783  0.000063 -7.312158  0.002799
   scf:   30     -923.071107     -923.071107     -923.142783  0.000007 -7.312098  0.002724
   scf:   31     -923.071107     -923.071107     -923.142783  0.000039 -7.311683  0.003143
   scf:   32     -923.071107     -923.071107     -923.142783  0.000010 -7.311513  0.003192
   scf:   33     -923.071107     -923.071107     -923.142783  0.000041 -7.310784  0.003164
   scf:   34     -923.071107     -923.071107     -923.142783  0.000015 -7.310485  0.002930
   scf:   35     -923.071107     -923.071107     -923.142783  0.000032 -7.309794  0.002207
   scf:   36     -923.071107     -923.071107     -923.142783  0.000009 -7.309582  0.001824
   scf:   37     -923.071107     -923.071107     -923.142783  0.000018 -7.309192  0.001337
   scf:   38     -923.071107     -923.071107     -923.142783  0.000007 -7.309108  0.001297
   scf:   39     -923.071107     -923.071107     -923.142783  0.000018 -7.308917  0.001173
   scf:   40     -923.071107     -923.071107     -923.142783  0.000004 -7.308883  0.001178
   scf:   41     -923.071107     -923.071107     -923.142783  0.000012 -7.308780  0.001164
   scf:   42     -923.071107     -923.071107     -923.142783  0.000004 -7.308763  0.001130
   scf:   43     -923.071107     -923.071107     -923.142783  0.000015 -7.308719  0.000992

SCF Convergence by DM+H criterion
max |DM_out - DM_in|         :     0.0000152787
max |H_out - H_in|      (eV) :     0.0009920837
SCF cycle converged after 43 iterations

Using DM_out to compute the final energy and forces
No. of atoms with KB's overlaping orbs in proc 0. Max # of overlaps:       4      26

siesta: E_KS(eV) =             -923.0711

siesta: Atomic forces (eV/Ang):
----------------------------------------
   Tot   -0.014511    0.001080    0.001149
----------------------------------------
   Max    2.989730
   Res    1.470125    sqrt( Sum f_i^2 / 3N )
----------------------------------------
   Max    2.989730    constrained

Stress tensor Voigt[x,y,z,yz,xz,xy] (kbar):       -0.94       -0.31        0.06        0.06       -0.05       -0.23
(Free)E + p*V (eV/cell)     -921.1578
Target enthalpy (eV/cell)     -923.1428

siesta: Stress tensor (static) (eV/Ang**3):
        -0.000331   -0.000264   -0.000031
        -0.000264   -0.000111    0.000040
        -0.000031    0.000040    0.000042

siesta: Pressure (static):          0.21396462  kBar

siesta: Stress tensor (total) (eV/Ang**3):
        -0.000584   -0.000144   -0.000033
        -0.000144   -0.000196    0.000037
        -0.000033    0.000037    0.000036

siesta: Pressure (total):          0.39753387  kBar

siesta: Temp_ion =    3632.844 K

                     ====================================
                        Begin MD step =     56
                     ====================================

outcell: Unit cell vectors (Ang):
       20.000000    0.000000    0.000000
        0.000000   20.000000    0.000000
        0.000000    0.000000   20.000000

outcell: Cell vector modules (Ang)   :   20.000000   20.000000   20.000000
outcell: Cell angles (23,13,12) (deg):     90.0000     90.0000     90.0000
outcell: Cell volume (Ang**3)        :   8000.0000
<dSpData1D:S at geom step 56
  <sparsity:sparsity for geom step 56
    nrows_g=26 nrows=26 sparsity=1.0000 nnzs=676, refcount: 7>
  <dData1D:(new from dSpData1D) n=676, refcount: 1>
refcount: 1>
new_DM -- step:    56
Re-using DM from previous geometries...
Number of DMs in history: 1
 DM extrapolation coefficients: 
1   1.00000
New DM after history re-use:
<dSpData2D:SpM extrapolated using coords
  <sparsity:sparsity for geom step 56
    nrows_g=26 nrows=26 sparsity=1.0000 nnzs=676, refcount: 9>
  <dData2D:(temp array for extrapolation) n=676 m=1, refcount: 1>
refcount: 1>
Note: For starting DM, Qtot, Tr[D*S] =         14.00000000         14.02332083
No. of atoms with KB's overlaping orbs in proc 0. Max # of overlaps:       4      26

InitMesh: MESH = 216 x 216 x 216 = 10077696
InitMesh: Mesh cutoff (required, used) =   300.000   322.366 Ry
New grid distribution [1]: sub = 2

        iscf     Eharris(eV)        E_KS(eV)     FreeEng(eV)     dDmax    Ef(eV) dHmax(eV)
   scf:    1     -923.296324     -923.112156     -923.183830  0.015964 -7.560037  0.322369
   scf:    2     -923.070091     -923.099498     -923.170163  0.065795 -7.293459  0.277122
   scf:    3     -923.116931     -923.109956     -923.181385  0.031437 -7.381888  0.156373
   scf:    4     -923.112380     -923.111259     -923.182795  0.007580 -7.382325  0.142360
   scf:    5     -923.111536     -923.112853     -923.184517  0.030021 -7.383014  0.093516
   scf:    6     -923.112969     -923.112913     -923.184579  0.000713 -7.381887  0.085659
   scf:    7     -923.113176     -923.113120     -923.184796  0.005162 -7.374304  0.062918
   scf:    8     -923.113155     -923.113140     -923.184817  0.001285 -7.372460  0.063155
   scf:    9     -923.112648     -923.113006     -923.184667  0.008195 -7.357244  0.063199
   scf:   10     -923.112944     -923.112976     -923.184634  0.000631 -7.351556  0.059191
   scf:   11     -923.112962     -923.112969     -923.184627  0.000190 -7.331776  0.041439
   scf:   12     -923.113103     -923.113040     -923.184705  0.001615 -7.326407  0.033010
   scf:   13     -923.113196     -923.113138     -923.184812  0.003374 -7.317034  0.031278
   scf:   14     -923.113168     -923.113154     -923.184829  0.000807 -7.315745  0.028946
   scf:   15     -923.113180     -923.113173     -923.184850  0.001649 -7.313078  0.022767
   scf:   16     -923.113179     -923.113176     -923.184853  0.000139 -7.313105  0.021041
   scf:   17     -923.113187     -923.113184     -923.184860  0.000628 -7.313484  0.013908
   scf:   18     -923.113184     -923.113184     -923.184860  0.000120 -7.313796  0.013083
   scf:   19     -923.113177     -923.113182     -923.184858  0.000740 -7.316362  0.016193
   scf:   20     -923.113181     -923.113182     -923.184857  0.000049 -7.317327  0.016224
   scf:   21     -923.113174     -923.113178     -923.184854  0.000149 -7.321770  0.015150
   scf:   22     -923.113179     -923.113179     -923.184854  0.000125 -7.323483  0.013571
   scf:   23     -923.113180     -923.113179     -923.184856  0.000307 -7.327387  0.008972
   scf:   24     -923.113182     -923.113181     -923.184857  0.000102 -7.328429  0.007353
   scf:   25     -923.113184     -923.113183     -923.184859  0.000166 -7.330228  0.006618
   scf:   26     -923.113184     -923.113183     -923.184859  0.000044 -7.330458  0.006047
   scf:   27     -923.113185     -923.113184     -923.184861  0.000123 -7.330946  0.004457
   scf:   28     -923.113185     -923.113185     -923.184861  0.000025 -7.330930  0.004273
   scf:   29     -923.113186     -923.113185     -923.184861  0.000110 -7.330786  0.004019
   scf:   30     -923.113185     -923.113185     -923.184861  0.000009 -7.330692  0.003880
   scf:   31     -923.113185     -923.113185     -923.184862  0.000047 -7.330096  0.004764
   scf:   32     -923.113186     -923.113185     -923.184862  0.000014 -7.329855  0.004772
   scf:   33     -923.113185     -923.113185     -923.184862  0.000047 -7.329013  0.004496
   scf:   34     -923.113185     -923.113185     -923.184862  0.000014 -7.328715  0.004133
   scf:   35     -923.113185     -923.113185     -923.184862  0.000031 -7.328002  0.003091
   scf:   36     -923.113185     -923.113185     -923.184862  0.000013 -7.327794  0.002650
   scf:   37     -923.113185     -923.113185     -923.184862  0.000033 -7.327270  0.002071
   scf:   38     -923.113185     -923.113185     -923.184862  0.000009 -7.327121  0.002021
   scf:   39     -923.113185     -923.113185     -923.184862  0.000025 -7.326674  0.001817
   scf:   40     -923.113186     -923.113185     -923.184862  0.000004 -7.326536  0.001705
   scf:   41     -923.113186     -923.113186     -923.184862  0.000014 -7.326157  0.001490
   scf:   42     -923.113186     -923.113186     -923.184862  0.000006 -7.326053  0.001466
   scf:   43     -923.113186     -923.113186     -923.184862  0.000016 -7.325830  0.001468
   scf:   44     -923.113186     -923.113186     -923.184862  0.000005 -7.325794  0.001432
   scf:   45     -923.113186     -923.113186     -923.184862  0.000014 -7.325731  0.001383
   scf:   46     -923.113186     -923.113186     -923.184862  0.000004 -7.325741  0.001337
   scf:   47     -923.113186     -923.113186     -923.184862  0.000012 -7.325796  0.001225
   scf:   48     -923.113186     -923.113186     -923.184862  0.000003 -7.325835  0.001271
   scf:   49     -923.113186     -923.113186     -923.184862  0.000012 -7.325998  0.001378
   scf:   50     -923.113186     -923.113186     -923.184862  0.000004 -7.326076  0.001357
   scf:   51     -923.113186     -923.113186     -923.184862  0.000010 -7.326325  0.001231
   scf:   52     -923.113186     -923.113186     -923.184862  0.000003 -7.326433  0.001126
   scf:   53     -923.113186     -923.113186     -923.184862  0.000005 -7.326703  0.000828

SCF Convergence by DM+H criterion
max |DM_out - DM_in|         :     0.0000053085
max |H_out - H_in|      (eV) :     0.0008280127
SCF cycle converged after 53 iterations

Using DM_out to compute the final energy and forces
No. of atoms with KB's overlaping orbs in proc 0. Max # of overlaps:       4      26

siesta: E_KS(eV) =             -923.1132

siesta: Atomic forces (eV/Ang):
----------------------------------------
   Tot   -0.006443   -0.000983    0.000205
----------------------------------------
   Max    2.743587
   Res    1.295040    sqrt( Sum f_i^2 / 3N )
----------------------------------------
   Max    2.743587    constrained

Stress tensor Voigt[x,y,z,yz,xz,xy] (kbar):       -0.96       -0.35       -0.02        0.01        0.03       -0.17
(Free)E + p*V (eV/cell)     -920.9658
Target enthalpy (eV/cell)     -923.1849

siesta: Stress tensor (static) (eV/Ang**3):
        -0.000359   -0.000222    0.000018
        -0.000222   -0.000124    0.000016
         0.000018    0.000016    0.000003

siesta: Pressure (static):          0.25633795  kBar

siesta: Stress tensor (total) (eV/Ang**3):
        -0.000601   -0.000103    0.000021
        -0.000103   -0.000221    0.000008
         0.000021    0.000008   -0.000010

siesta: Pressure (total):          0.44442603  kBar

siesta: Temp_ion =    3731.339 K

                     ====================================
                        Begin MD step =     57
                     ====================================

outcell: Unit cell vectors (Ang):
       20.000000    0.000000    0.000000
        0.000000   20.000000    0.000000
        0.000000    0.000000   20.000000

outcell: Cell vector modules (Ang)   :   20.000000   20.000000   20.000000
outcell: Cell angles (23,13,12) (deg):     90.0000     90.0000     90.0000
outcell: Cell volume (Ang**3)        :   8000.0000
<dSpData1D:S at geom step 57
  <sparsity:sparsity for geom step 57
    nrows_g=26 nrows=26 sparsity=1.0000 nnzs=676, refcount: 7>
  <dData1D:(new from dSpData1D) n=676, refcount: 1>
refcount: 1>
new_DM -- step:    57
Re-using DM from previous geometries...
Number of DMs in history: 1
 DM extrapolation coefficients: 
1   1.00000
New DM after history re-use:
<dSpData2D:SpM extrapolated using coords
  <sparsity:sparsity for geom step 57
    nrows_g=26 nrows=26 sparsity=1.0000 nnzs=676, refcount: 9>
  <dData2D:(temp array for extrapolation) n=676 m=1, refcount: 1>
refcount: 1>
Note: For starting DM, Qtot, Tr[D*S] =         14.00000000         14.02216373
No. of atoms with KB's overlaping orbs in proc 0. Max # of overlaps:       4      26

InitMesh: MESH = 216 x 216 x 216 = 10077696
InitMesh: Mesh cutoff (required, used) =   300.000   322.366 Ry
New grid distribution [1]: sub = 2

        iscf     Eharris(eV)        E_KS(eV)     FreeEng(eV)     dDmax    Ef(eV) dHmax(eV)
   scf:    1     -923.342714     -923.108045     -923.179720  0.016715 -7.586400  0.305868
   scf:    2     -923.078745     -923.099488     -923.170458  0.055765 -7.330221  0.245423
   scf:    3     -923.111860     -923.106855     -923.178349  0.026053 -7.411351  0.129343
   scf:    4     -923.108632     -923.107809     -923.179382  0.006566 -7.411838  0.117785
   scf:    5     -923.108032     -923.108995     -923.180662  0.026209 -7.412993  0.076979
   scf:    6     -923.109089     -923.109043     -923.180713  0.000670 -7.412110  0.070444
   scf:    7     -923.109250     -923.109203     -923.180880  0.004449 -7.406317  0.050482
   scf:    8     -923.109223     -923.109215     -923.180892  0.001020 -7.404879  0.050786
